<LesHouchesEvents version="3.0">

  <header>                                                                
  <MG5ProcCard>                                                           
#************************************************************             
#*                        MadGraph 5                        *             
#*                                                          *             
#*                *                       *                 *             
#*                  *        * *        *                   *             
#*                    * * * * 5 * * * *                     *             
#*                  *        * *        *                   *             
#*                *                       *                 *             
#*                                                          *             
#*                                                          *             
#*         VERSION 2.0.0.beta4           2013-06-22         *             
#*                                                          *             
#*    The MadGraph Development Team - Please visit us at    *             
#*    https://server06.fynu.ucl.ac.be/projects/madgraph     *             
#*                                                          *             
#************************************************************             
#*                                                          *             
#*               Command File for MadGraph 5                *             
#*                                                          *             
#*     run as ./bin/mg5  filename                           *             
#*                                                          *             
#************************************************************             
                                                                          
set group_subprocesses Auto                                               
set ignore_six_quark_processes False                                      
set loop_optimized_output True                                            
set gauge unitary                                                         
set complex_mass_scheme False                                             
import model sm                                                           
define p = g u c d s u~ c~ d~ s~                                          
define j = g u c d s u~ c~ d~ s~                                          
define l+ = e+ mu+                                                        
define l- = e- mu-                                                        
define vl = ve vm vt                                                      
define vl~ = ve~ vm~ vt~                                                  
import model loop_sm-no_b_mass                                            
set complex_mass_scheme True                                              
define p = p b b~                                                         
define j = p                                                              
generate p p > w+ b j $$w+ w- z a QED=3 QCD=0 [QCD]                       
output wbj_prod_1                                                         
                                                             
#************************************************************             
#*                        MadGraph 5                        *             
#*                                                          *             
#*                *                       *                 *             
#*                  *        * *        *                   *             
#*                    * * * * 5 * * * *                     *             
#*                  *        * *        *                   *             
#*                *                       *                 *             
#*                                                          *             
#*                                                          *             
#*         VERSION 2.0.0.beta4           2013-06-22         *             
#*                                                          *             
#*    The MadGraph Development Team - Please visit us at    *             
#*    https://server06.fynu.ucl.ac.be/projects/madgraph     *             
#*                                                          *             
#************************************************************             
#*                                                          *             
#*               Command File for MadGraph 5                *             
#*                                                          *             
#*     run as ./bin/mg5  filename                           *             
#*                                                          *             
#************************************************************             
                                                                          
set group_subprocesses Auto                                               
set ignore_six_quark_processes False                                      
set loop_optimized_output True                                            
set gauge unitary                                                         
set complex_mass_scheme False                                             
import model sm                                                           
define p = g u c d s u~ c~ d~ s~                                          
define j = g u c d s u~ c~ d~ s~                                          
define l+ = e+ mu+                                                        
define l- = e- mu-                                                        
define vl = ve vm vt                                                      
define vl~ = ve~ vm~ vt~                                                  
import model loop_sm-no_b_mass                                            
set complex_mass_scheme True                                              
define p = p b b~                                                         
define j = p                                                              
generate p p > w+ b j $$w+ w- z a QED=3 QCD=0 [QCD]                       
output wbj_prod_1                                                         
                                                             
#************************************************************             
#*                        MadGraph 5                        *             
#*                                                          *             
#*                *                       *                 *             
#*                  *        * *        *                   *             
#*                    * * * * 5 * * * *                     *             
#*                  *        * *        *                   *             
#*                *                       *                 *             
#*                                                          *             
#*                                                          *             
#*         VERSION 2.0.0.beta4           2013-06-22         *             
#*                                                          *             
#*    The MadGraph Development Team - Please visit us at    *             
#*    https://server06.fynu.ucl.ac.be/projects/madgraph     *             
#*                                                          *             
#************************************************************             
#*                                                          *             
#*               Command File for MadGraph 5                *             
#*                                                          *             
#*     run as ./bin/mg5  filename                           *             
#*                                                          *             
#************************************************************             
                                                                          
set group_subprocesses Auto                                               
set ignore_six_quark_processes False                                      
set loop_optimized_output True                                            
set gauge unitary                                                         
set complex_mass_scheme False                                             
import model sm                                                           
define p = g u c d s u~ c~ d~ s~                                          
define j = g u c d s u~ c~ d~ s~                                          
define l+ = e+ mu+                                                        
define l- = e- mu-                                                        
define vl = ve vm vt                                                      
define vl~ = ve~ vm~ vt~                                                  
import model loop_sm-no_b_mass                                            
set complex_mass_scheme True                                              
define p = p b b~                                                         
define j = p                                                              
generate p p > w+ b j $$w+ w- z a QED=3 QCD=0 [QCD]                       
output wbj_prod_1                                                         
                                                             
#************************************************************             
#*                        MadGraph 5                        *             
#*                                                          *             
#*                *                       *                 *             
#*                  *        * *        *                   *             
#*                    * * * * 5 * * * *                     *             
#*                  *        * *        *                   *             
#*                *                       *                 *             
#*                                                          *             
#*                                                          *             
#*         VERSION 2.0.0.beta4           2013-06-22         *             
#*                                                          *             
#*    The MadGraph Development Team - Please visit us at    *             
#*    https://server06.fynu.ucl.ac.be/projects/madgraph     *             
#*                                                          *             
#************************************************************             
#*                                                          *             
#*               Command File for MadGraph 5                *             
#*                                                          *             
#*     run as ./bin/mg5  filename                           *             
#*                                                          *             
#************************************************************             
                                                                          
set group_subprocesses Auto                                               
set ignore_six_quark_processes False                                      
set loop_optimized_output True                                            
set gauge unitary                                                         
set complex_mass_scheme False                                             
import model sm                                                           
define p = g u c d s u~ c~ d~ s~                                          
define j = g u c d s u~ c~ d~ s~                                          
define l+ = e+ mu+                                                        
define l- = e- mu-                                                        
define vl = ve vm vt                                                      
define vl~ = ve~ vm~ vt~                                                  
import model loop_sm-no_b_mass                                            
set complex_mass_scheme True                                              
define p = p b b~                                                         
define j = p                                                              
generate p p > w+ b j $$w+ w- z a QED=3 QCD=0 [QCD]                       
output wbj_prod_1                                                         
  </MG5ProcCard>

                                                          
  <slha>                                                                  
######################################################################    
## PARAM_CARD AUTOMATICALY GENERATED BY MG5 FOLLOWING UFO MODEL   ####    
######################################################################    
##                                                                  ##    
##  Width set on Auto will be computed following the information    ##    
##        present in the decay.py files of the model. By default,   ##    
##        this is only 1->2 decay modes.                            ##    
##                                                                  ##    
######################################################################    
                                                                          
###################################                                       
## INFORMATION FOR LOOP                                                   
###################################                                       
Block loop                                                                
    1 8.660000e+01 # MU_R                                                 
                                                                          
###################################                                       
## INFORMATION FOR MASS                                                   
###################################                                       
Block mass                                                                
    6 1.732000e+02 # MT                                                   
   15 1.777000e+00 # MTA                                                  
   23 9.118760e+01 # MZ                                                   
   24 8.039800e+01 # MW                                                   
   25 1.200000e+02 # MH                                                   
## Dependent parameters, given by model restrictions.                     
## Those values should be edited following the                            
## analytical expression. MG5 ignores those values                        
## but they are important for interfacing the output of MG5               
## to external program such as Pythia.                                    
  1 0.000000 # d : 0.0                                                    
  2 0.000000 # u : 0.0                                                    
  3 0.000000 # s : 0.0                                                    
  4 0.000000 # c : 0.0                                                    
  5 0.000000 # b : 0.0                                                    
  11 0.000000 # e- : 0.0                                                  
  12 0.000000 # ve : 0.0                                                  
  13 0.000000 # mu- : 0.0                                                 
  14 0.000000 # vm : 0.0                                                  
  16 0.000000 # vt : 0.0                                                  
  21 0.000000 # g : 0.0                                                   
  22 0.000000 # a : 0.0                                                   
  82 0.000000 # gh : 0.0                                                  
                                                                          
###################################                                       
## INFORMATION FOR SMINPUTS                                               
###################################                                       
Block sminputs                                                            
    1 1.323384e+02 # aEWM1                                                
    3 1.180000e-01 # aS                                                   
                                                                          
###################################                                       
## INFORMATION FOR DECAY                                                  
###################################                                       
DECAY   6 1.501700e+00 # WT Gamma_t_LO                                    
#DECAY   6 1.356900e+00 # WT Gamma_t_NLO(mu=mt/2)                         
DECAY  23 2.495200e+00 # WZ                                               
DECAY  24 0.000000e+00 # WW                                               
DECAY  25 5.753088e-03 # WH                                               
## Dependent parameters, given by model restrictions.                     
## Those values should be edited following the                            
## analytical expression. MG5 ignores those values                        
## but they are important for interfacing the output of MG5               
## to external program such as Pythia.                                    
DECAY  1 0.000000 # d : 0.0                                               
DECAY  2 0.000000 # u : 0.0                                               
DECAY  3 0.000000 # s : 0.0                                               
DECAY  4 0.000000 # c : 0.0                                               
DECAY  5 0.000000 # b : 0.0                                               
DECAY  11 0.000000 # e- : 0.0                                             
DECAY  12 0.000000 # ve : 0.0                                             
DECAY  13 0.000000 # mu- : 0.0                                            
DECAY  14 0.000000 # vm : 0.0                                             
DECAY  15 0.000000 # ta- : 0.0                                            
DECAY  16 0.000000 # vt : 0.0                                             
DECAY  21 0.000000 # g : 0.0                                              
DECAY  22 0.000000 # a : 0.0                                              
DECAY  82 0.000000 # gh : 0.0                                             
#===========================================================              
# QUANTUM NUMBERS OF NEW STATE(S) (NON SM PDG CODE)                       
#===========================================================              
                                                                          
Block QNUMBERS 82  # gh                                                   
        1 0  # 3 times electric charge                                    
        2 1  # number of spin states (2S+1)                               
        3 8  # colour rep (1: singlet, 3: triplet, 8: octet)              
        4 1  # Particle/Antiparticle distinction (0=own anti)             
                                                                    
######################################################################    
## PARAM_CARD AUTOMATICALY GENERATED BY MG5 FOLLOWING UFO MODEL   ####    
######################################################################    
##                                                                  ##    
##  Width set on Auto will be computed following the information    ##    
##        present in the decay.py files of the model. By default,   ##    
##        this is only 1->2 decay modes.                            ##    
##                                                                  ##    
######################################################################    
                                                                          
###################################                                       
## INFORMATION FOR LOOP                                                   
###################################                                       
Block loop                                                                
    1 8.660000e+01 # MU_R                                                 
                                                                          
###################################                                       
## INFORMATION FOR MASS                                                   
###################################                                       
Block mass                                                                
    6 1.732000e+02 # MT                                                   
   15 1.777000e+00 # MTA                                                  
   23 9.118760e+01 # MZ                                                   
   24 8.039800e+01 # MW                                                   
   25 1.200000e+02 # MH                                                   
## Dependent parameters, given by model restrictions.                     
## Those values should be edited following the                            
## analytical expression. MG5 ignores those values                        
## but they are important for interfacing the output of MG5               
## to external program such as Pythia.                                    
  1 0.000000 # d : 0.0                                                    
  2 0.000000 # u : 0.0                                                    
  3 0.000000 # s : 0.0                                                    
  4 0.000000 # c : 0.0                                                    
  5 0.000000 # b : 0.0                                                    
  11 0.000000 # e- : 0.0                                                  
  12 0.000000 # ve : 0.0                                                  
  13 0.000000 # mu- : 0.0                                                 
  14 0.000000 # vm : 0.0                                                  
  16 0.000000 # vt : 0.0                                                  
  21 0.000000 # g : 0.0                                                   
  22 0.000000 # a : 0.0                                                   
  82 0.000000 # gh : 0.0                                                  
                                                                          
###################################                                       
## INFORMATION FOR SMINPUTS                                               
###################################                                       
Block sminputs                                                            
    1 1.323384e+02 # aEWM1                                                
    3 1.180000e-01 # aS                                                   
                                                                          
###################################                                       
## INFORMATION FOR DECAY                                                  
###################################                                       
DECAY   6 1.501700e+00 # WT Gamma_t_LO                                    
#DECAY   6 1.356900e+00 # WT Gamma_t_NLO(mu=mt/2)                         
DECAY  23 2.495200e+00 # WZ                                               
DECAY  24 0.000000e+00 # WW                                               
DECAY  25 5.753088e-03 # WH                                               
## Dependent parameters, given by model restrictions.                     
## Those values should be edited following the                            
## analytical expression. MG5 ignores those values                        
## but they are important for interfacing the output of MG5               
## to external program such as Pythia.                                    
DECAY  1 0.000000 # d : 0.0                                               
DECAY  2 0.000000 # u : 0.0                                               
DECAY  3 0.000000 # s : 0.0                                               
DECAY  4 0.000000 # c : 0.0                                               
DECAY  5 0.000000 # b : 0.0                                               
DECAY  11 0.000000 # e- : 0.0                                             
DECAY  12 0.000000 # ve : 0.0                                             
DECAY  13 0.000000 # mu- : 0.0                                            
DECAY  14 0.000000 # vm : 0.0                                             
DECAY  15 0.000000 # ta- : 0.0                                            
DECAY  16 0.000000 # vt : 0.0                                             
DECAY  21 0.000000 # g : 0.0                                              
DECAY  22 0.000000 # a : 0.0                                              
DECAY  82 0.000000 # gh : 0.0                                             
#===========================================================              
# QUANTUM NUMBERS OF NEW STATE(S) (NON SM PDG CODE)                       
#===========================================================              
                                                                          
Block QNUMBERS 82  # gh                                                   
        1 0  # 3 times electric charge                                    
        2 1  # number of spin states (2S+1)                               
        3 8  # colour rep (1: singlet, 3: triplet, 8: octet)              
        4 1  # Particle/Antiparticle distinction (0=own anti)             
                                                                    
######################################################################    
## PARAM_CARD AUTOMATICALY GENERATED BY MG5 FOLLOWING UFO MODEL   ####    
######################################################################    
##                                                                  ##    
##  Width set on Auto will be computed following the information    ##    
##        present in the decay.py files of the model. By default,   ##    
##        this is only 1->2 decay modes.                            ##    
##                                                                  ##    
######################################################################    
                                                                          
###################################                                       
## INFORMATION FOR LOOP                                                   
###################################                                       
Block loop                                                                
    1 8.660000e+01 # MU_R                                                 
                                                                          
###################################                                       
## INFORMATION FOR MASS                                                   
###################################                                       
Block mass                                                                
    6 1.732000e+02 # MT                                                   
   15 1.777000e+00 # MTA                                                  
   23 9.118760e+01 # MZ                                                   
   24 8.039800e+01 # MW                                                   
   25 1.200000e+02 # MH                                                   
## Dependent parameters, given by model restrictions.                     
## Those values should be edited following the                            
## analytical expression. MG5 ignores those values                        
## but they are important for interfacing the output of MG5               
## to external program such as Pythia.                                    
  1 0.000000 # d : 0.0                                                    
  2 0.000000 # u : 0.0                                                    
  3 0.000000 # s : 0.0                                                    
  4 0.000000 # c : 0.0                                                    
  5 0.000000 # b : 0.0                                                    
  11 0.000000 # e- : 0.0                                                  
  12 0.000000 # ve : 0.0                                                  
  13 0.000000 # mu- : 0.0                                                 
  14 0.000000 # vm : 0.0                                                  
  16 0.000000 # vt : 0.0                                                  
  21 0.000000 # g : 0.0                                                   
  22 0.000000 # a : 0.0                                                   
  82 0.000000 # gh : 0.0                                                  
                                                                          
###################################                                       
## INFORMATION FOR SMINPUTS                                               
###################################                                       
Block sminputs                                                            
    1 1.323384e+02 # aEWM1                                                
    3 1.180000e-01 # aS                                                   
                                                                          
###################################                                       
## INFORMATION FOR DECAY                                                  
###################################                                       
DECAY   6 1.501700e+00 # WT Gamma_t_LO                                    
#DECAY   6 1.356900e+00 # WT Gamma_t_NLO(mu=mt/2)                         
DECAY  23 2.495200e+00 # WZ                                               
DECAY  24 0.000000e+00 # WW                                               
DECAY  25 5.753088e-03 # WH                                               
## Dependent parameters, given by model restrictions.                     
## Those values should be edited following the                            
## analytical expression. MG5 ignores those values                        
## but they are important for interfacing the output of MG5               
## to external program such as Pythia.                                    
DECAY  1 0.000000 # d : 0.0                                               
DECAY  2 0.000000 # u : 0.0                                               
DECAY  3 0.000000 # s : 0.0                                               
DECAY  4 0.000000 # c : 0.0                                               
DECAY  5 0.000000 # b : 0.0                                               
DECAY  11 0.000000 # e- : 0.0                                             
DECAY  12 0.000000 # ve : 0.0                                             
DECAY  13 0.000000 # mu- : 0.0                                            
DECAY  14 0.000000 # vm : 0.0                                             
DECAY  15 0.000000 # ta- : 0.0                                            
DECAY  16 0.000000 # vt : 0.0                                             
DECAY  21 0.000000 # g : 0.0                                              
DECAY  22 0.000000 # a : 0.0                                              
DECAY  82 0.000000 # gh : 0.0                                             
#===========================================================              
# QUANTUM NUMBERS OF NEW STATE(S) (NON SM PDG CODE)                       
#===========================================================              
                                                                          
Block QNUMBERS 82  # gh                                                   
        1 0  # 3 times electric charge                                    
        2 1  # number of spin states (2S+1)                               
        3 8  # colour rep (1: singlet, 3: triplet, 8: octet)              
        4 1  # Particle/Antiparticle distinction (0=own anti)             
                                                                    
######################################################################    
## PARAM_CARD AUTOMATICALY GENERATED BY MG5 FOLLOWING UFO MODEL   ####    
######################################################################    
##                                                                  ##    
##  Width set on Auto will be computed following the information    ##    
##        present in the decay.py files of the model. By default,   ##    
##        this is only 1->2 decay modes.                            ##    
##                                                                  ##    
######################################################################    
                                                                          
###################################                                       
## INFORMATION FOR LOOP                                                   
###################################                                       
Block loop                                                                
    1 8.660000e+01 # MU_R                                                 
                                                                          
###################################                                       
## INFORMATION FOR MASS                                                   
###################################                                       
Block mass                                                                
    6 1.732000e+02 # MT                                                   
   15 1.777000e+00 # MTA                                                  
   23 9.118760e+01 # MZ                                                   
   24 8.039800e+01 # MW                                                   
   25 1.200000e+02 # MH                                                   
## Dependent parameters, given by model restrictions.                     
## Those values should be edited following the                            
## analytical expression. MG5 ignores those values                        
## but they are important for interfacing the output of MG5               
## to external program such as Pythia.                                    
  1 0.000000 # d : 0.0                                                    
  2 0.000000 # u : 0.0                                                    
  3 0.000000 # s : 0.0                                                    
  4 0.000000 # c : 0.0                                                    
  5 0.000000 # b : 0.0                                                    
  11 0.000000 # e- : 0.0                                                  
  12 0.000000 # ve : 0.0                                                  
  13 0.000000 # mu- : 0.0                                                 
  14 0.000000 # vm : 0.0                                                  
  16 0.000000 # vt : 0.0                                                  
  21 0.000000 # g : 0.0                                                   
  22 0.000000 # a : 0.0                                                   
  82 0.000000 # gh : 0.0                                                  
                                                                          
###################################                                       
## INFORMATION FOR SMINPUTS                                               
###################################                                       
Block sminputs                                                            
    1 1.323384e+02 # aEWM1                                                
    3 1.180000e-01 # aS                                                   
                                                                          
###################################                                       
## INFORMATION FOR DECAY                                                  
###################################                                       
DECAY   6 1.501700e+00 # WT Gamma_t_LO                                    
#DECAY   6 1.356900e+00 # WT Gamma_t_NLO(mu=mt/2)                         
DECAY  23 2.495200e+00 # WZ                                               
DECAY  24 0.000000e+00 # WW                                               
DECAY  25 5.753088e-03 # WH                                               
## Dependent parameters, given by model restrictions.                     
## Those values should be edited following the                            
## analytical expression. MG5 ignores those values                        
## but they are important for interfacing the output of MG5               
## to external program such as Pythia.                                    
DECAY  1 0.000000 # d : 0.0                                               
DECAY  2 0.000000 # u : 0.0                                               
DECAY  3 0.000000 # s : 0.0                                               
DECAY  4 0.000000 # c : 0.0                                               
DECAY  5 0.000000 # b : 0.0                                               
DECAY  11 0.000000 # e- : 0.0                                             
DECAY  12 0.000000 # ve : 0.0                                             
DECAY  13 0.000000 # mu- : 0.0                                            
DECAY  14 0.000000 # vm : 0.0                                             
DECAY  15 0.000000 # ta- : 0.0                                            
DECAY  16 0.000000 # vt : 0.0                                             
DECAY  21 0.000000 # g : 0.0                                              
DECAY  22 0.000000 # a : 0.0                                              
DECAY  82 0.000000 # gh : 0.0                                             
#===========================================================              
# QUANTUM NUMBERS OF NEW STATE(S) (NON SM PDG CODE)                       
#===========================================================              
                                                                          
Block QNUMBERS 82  # gh                                                   
        1 0  # 3 times electric charge                                    
        2 1  # number of spin states (2S+1)                               
        3 8  # colour rep (1: singlet, 3: triplet, 8: octet)              
        4 1  # Particle/Antiparticle distinction (0=own anti)             
  </slha>

                                                                 
  <MGRunCard>                                                             
#***********************************************************************  
#                       MadGraph/MadEvent                              *  
#                  http://madgraph.hep.uiuc.edu                        *  
#                                                                      *  
#                        run_card.dat                                  *  
#                                                                      *  
#  This file is used to set the parameters of the run.                 *  
#                                                                      *  
#  Some notation/conventions:                                          *  
#                                                                      *  
#   Lines starting with a hash (#) are info or comments                *  
#                                                                      *  
#   mind the format:   value    = variable     ! comment               *  
#***********************************************************************  
#                                                                         
#*******************                                                      
# Running parameters                                                      
#*******************                                                      
#                                                                         
#***********************************************************************  
# Tag name for the run (one word)                                      *  
#***********************************************************************  
  tag_1     = run_tag ! name of the run                                   
#***********************************************************************  
# Number of events (and their normalization) and the required          *  
# (relative) accuracy on the Xsec.                                     *  
# These values are ignored for fixed order runs                        *  
#***********************************************************************  
     1000000  = nevents    ! Number of unweighted events requested
    1000000 = nevents                                                     
#    -1 = req_acc ! Required accuracy (-1=auto determined from nevents)   
    -1 = nevt_job! Max number of events per job in event generation.      
                 !  (-1= no split).                                       
average = event_norm ! Normalize events to sum or average to the X sect.  
#***********************************************************************  
# Number of points per itegration channel (ignored for aMC@NLO runs)   *  
#***********************************************************************  
 100000   = npoints_FO_grid  ! number of points to set-up int. grids      
 5      = niters_FO_grid   ! number of iterations to set-up int. grids    
 500000   = npoints_FO_virt  ! number of points to compute Xsec (virt)    
 10      = niters_FO_virt   ! number of iter. to compute Xsec (virt)      
 1000000  = npoints_FO       ! number of points to compute Xsec (no virt  
 10      = niters_FO        ! number of iter. to compute Xsec (no virt)   
#***********************************************************************  
# Random number seed                                                   *  
#***********************************************************************  
         44 =  iseed                                                      
#***********************************************************************  
# Collider type and energy                                             *  
#***********************************************************************  
    1   = lpp1    ! beam 1 type (0 = no PDF)                              
    1   = lpp2    ! beam 2 type (0 = no PDF)                              
 4000   = ebeam1  ! beam 1 energy in GeV                                  
 4000   = ebeam2  ! beam 2 energy in GeV                                  
#***********************************************************************  
# PDF choice: this automatically fixes also alpha_s(MZ) and its evol.  *  
#***********************************************************************  
  lhapdf   = pdlabel   ! PDF set                                          
  21100    = lhaid     ! if pdlabel=lhapdf, this is the lhapdf number     
#***********************************************************************  
# Include the NLO Monte Carlo subtr. terms for the following parton    *  
# shower (HERWIG6 | HERWIGPP | PYTHIA6Q | PYTHIA6PT | PYTHIA8)         *  
# WARNING: PYTHIA6PT works only for processes without FSR!!!!          *  
#***********************************************************************  
#  HERWIG6   = parton_shower                                              
  PYTHIA8 = parton_shower                                                 
#***********************************************************************  
# Renormalization and factorization scales                             *  
# (Default functional form for the non-fixed scales is the sum of      *  
# the transverse masses of all final state particles and partons. This *  
# can be changed in SubProcesses/set_scales.f)                         *  
#***********************************************************************  
 T        = fixed_ren_scale  ! if .true. use fixed ren scale              
 T        = fixed_fac_scale  ! if .true. use fixed fac scale              
 86.600   = muR_ref_fixed    ! fixed ren reference scale                  
 86.600   = muF1_ref_fixed   ! fixed fact reference scale for pdf1        
 86.600   = muF2_ref_fixed   ! fixed fact reference scale for pdf2        
#***********************************************************************  
# Renormalization and factorization scales (advanced and NLO options)  *  
#***********************************************************************  
 T        = fixed_QES_scale  ! if .true. use fixed Ellis-Sexton scale     
 86.600   = QES_ref_fixed    ! fixed Ellis-Sexton reference scale         
 1        = muR_over_ref     ! ratio of current muR over reference muR    
 1        = muF1_over_ref    ! ratio of current muF1 over reference muF1  
 1        = muF2_over_ref    ! ratio of current muF2 over reference muF2  
 1        = QES_over_ref     ! ratio of current QES over reference QES    
#***********************************************************************  
# Reweight flags to get scale dependence and PDF uncertainty           *  
# For scale dependence: factor rw_scale_up/down around central scale   *  
# For PDF uncertainty: use LHAPDF with supported set                   *  
#***********************************************************************  
 .true.   = reweight_scale   ! reweight to get scale dependence           
  0.5     = rw_Rscale_down   ! lower bound for ren scale variations       
  2.0     = rw_Rscale_up     ! upper bound for ren scale variations       
  0.5     = rw_Fscale_down   ! lower bound for fact scale variations      
  2.0     = rw_Fscale_up     ! upper bound for fact scale variations      
 .false.  = reweight_PDF     ! reweight to get PDF uncertainty            
  21101   = PDF_set_min      ! First of the error PDF sets                
  21140   = PDF_set_max      ! Last of the error PDF sets                 
#***********************************************************************  
# Merging - WARNING! Applies merging only at the hard-event level.     *  
# After showering an MLM-type merging should be applied as well.       *  
# See http://amcatnlo.cern.ch/FxFx_merging.htm for more details.       *  
#***********************************************************************  
 0        = ickkw            ! 0 no merging, 3 FxFx merging               
#***********************************************************************  
#                                                                         
#***********************************************************************  
# BW cutoff (M+/-bwcutoff*Gamma)                                       *  
#***********************************************************************  
 35  = bwcutoff                                                           
#***********************************************************************  
# Cuts on the jets                                                     *  
# When matching to a parton shower, these generation cuts should be    *  
# considerably softer than the analysis cuts.                          *  
# (more specific cuts can be specified in SubProcesses/cuts.f)         *  
#***********************************************************************  
   1  = jetalgo   ! FastJet jet algorithm (1=kT, 0=C/A, -1=anti-kT)       
 0.4  = jetradius ! The radius parameter for the jet algorithm            
   4  = ptj       ! Min jet transverse momentum                           
  -1  = etaj      ! Max jet abs(pseudo-rap) (a value .lt.0 means no cut)  
#***********************************************************************  
# Cuts on the charged leptons (e+, e-, mu+, mu-, tau+ and tau-)        *  
# (more specific gen cuts can be specified in SubProcesses/cuts.f)     *  
#***********************************************************************  
   0  = ptl   ! Min lepton transverse momentum                            
  -1  = etal  ! Max lepton abs(pseudo-rap) (a value .lt.0 means no cut)   
   0  = drll  ! Min distance between opposite sign lepton pairs           
  10  = mll   ! Min inv. mass of all oppositely charged lepton pairs      
#***********************************************************************  
# Photon-isolation cuts, according to hep-ph/9801442                   *  
# When ptgmin=0, all the other parameters are ignored                  *  
#***********************************************************************  
  20  = ptgmin    ! Min photon transverse momentum                        
  -1  = etagamma  ! Max photon abs(pseudo-rap)                            
 0.4  = R0gamma   ! Radius of isolation code                              
 1.0  = xn        ! n parameter of eq.(3.4) in hep-ph/9801442             
 1.0  = epsgamma  ! epsilon_gamma parameter of eq.(3.4) in hep-ph/980144  
 .true.  = isoEM  ! isolate photons from EM energy (photons and leptons)  
#***********************************************************************  
# maximal pdg code for quark to be considered as a jet                 *  
#***********************************************************************  
 5 = maxjetflavor                                                         
#***********************************************************************  
                                                               
#***********************************************************************  
#                       MadGraph/MadEvent                              *  
#                  http://madgraph.hep.uiuc.edu                        *  
#                                                                      *  
#                        run_card.dat                                  *  
#                                                                      *  
#  This file is used to set the parameters of the run.                 *  
#                                                                      *  
#  Some notation/conventions:                                          *  
#                                                                      *  
#   Lines starting with a hash (#) are info or comments                *  
#                                                                      *  
#   mind the format:   value    = variable     ! comment               *  
#***********************************************************************  
#                                                                         
#*******************                                                      
# Running parameters                                                      
#*******************                                                      
#                                                                         
#***********************************************************************  
# Tag name for the run (one word)                                      *  
#***********************************************************************  
  tag_1     = run_tag ! name of the run                                   
#***********************************************************************  
# Number of events (and their normalization) and the required          *  
# (relative) accuracy on the Xsec.                                     *  
# These values are ignored for fixed order runs                        *  
#***********************************************************************  
     1000000  = nevents    ! Number of unweighted events requested
    1000000 = nevents                                                     
#    -1 = req_acc ! Required accuracy (-1=auto determined from nevents)   
    -1 = nevt_job! Max number of events per job in event generation.      
                 !  (-1= no split).                                       
average = event_norm ! Normalize events to sum or average to the X sect.  
#***********************************************************************  
# Number of points per itegration channel (ignored for aMC@NLO runs)   *  
#***********************************************************************  
 100000   = npoints_FO_grid  ! number of points to set-up int. grids      
 5      = niters_FO_grid   ! number of iterations to set-up int. grids    
 500000   = npoints_FO_virt  ! number of points to compute Xsec (virt)    
 10      = niters_FO_virt   ! number of iter. to compute Xsec (virt)      
 1000000  = npoints_FO       ! number of points to compute Xsec (no virt  
 10      = niters_FO        ! number of iter. to compute Xsec (no virt)   
#***********************************************************************  
# Random number seed                                                   *  
#***********************************************************************  
         44 =  iseed                                                      
#***********************************************************************  
# Collider type and energy                                             *  
#***********************************************************************  
    1   = lpp1    ! beam 1 type (0 = no PDF)                              
    1   = lpp2    ! beam 2 type (0 = no PDF)                              
 4000   = ebeam1  ! beam 1 energy in GeV                                  
 4000   = ebeam2  ! beam 2 energy in GeV                                  
#***********************************************************************  
# PDF choice: this automatically fixes also alpha_s(MZ) and its evol.  *  
#***********************************************************************  
  lhapdf   = pdlabel   ! PDF set                                          
  21100    = lhaid     ! if pdlabel=lhapdf, this is the lhapdf number     
#***********************************************************************  
# Include the NLO Monte Carlo subtr. terms for the following parton    *  
# shower (HERWIG6 | HERWIGPP | PYTHIA6Q | PYTHIA6PT | PYTHIA8)         *  
# WARNING: PYTHIA6PT works only for processes without FSR!!!!          *  
#***********************************************************************  
#  HERWIG6   = parton_shower                                              
  PYTHIA8 = parton_shower                                                 
#***********************************************************************  
# Renormalization and factorization scales                             *  
# (Default functional form for the non-fixed scales is the sum of      *  
# the transverse masses of all final state particles and partons. This *  
# can be changed in SubProcesses/set_scales.f)                         *  
#***********************************************************************  
 T        = fixed_ren_scale  ! if .true. use fixed ren scale              
 T        = fixed_fac_scale  ! if .true. use fixed fac scale              
 86.600   = muR_ref_fixed    ! fixed ren reference scale                  
 86.600   = muF1_ref_fixed   ! fixed fact reference scale for pdf1        
 86.600   = muF2_ref_fixed   ! fixed fact reference scale for pdf2        
#***********************************************************************  
# Renormalization and factorization scales (advanced and NLO options)  *  
#***********************************************************************  
 T        = fixed_QES_scale  ! if .true. use fixed Ellis-Sexton scale     
 86.600   = QES_ref_fixed    ! fixed Ellis-Sexton reference scale         
 1        = muR_over_ref     ! ratio of current muR over reference muR    
 1        = muF1_over_ref    ! ratio of current muF1 over reference muF1  
 1        = muF2_over_ref    ! ratio of current muF2 over reference muF2  
 1        = QES_over_ref     ! ratio of current QES over reference QES    
#***********************************************************************  
# Reweight flags to get scale dependence and PDF uncertainty           *  
# For scale dependence: factor rw_scale_up/down around central scale   *  
# For PDF uncertainty: use LHAPDF with supported set                   *  
#***********************************************************************  
 .true.   = reweight_scale   ! reweight to get scale dependence           
  0.5     = rw_Rscale_down   ! lower bound for ren scale variations       
  2.0     = rw_Rscale_up     ! upper bound for ren scale variations       
  0.5     = rw_Fscale_down   ! lower bound for fact scale variations      
  2.0     = rw_Fscale_up     ! upper bound for fact scale variations      
 .false.  = reweight_PDF     ! reweight to get PDF uncertainty            
  21101   = PDF_set_min      ! First of the error PDF sets                
  21140   = PDF_set_max      ! Last of the error PDF sets                 
#***********************************************************************  
# Merging - WARNING! Applies merging only at the hard-event level.     *  
# After showering an MLM-type merging should be applied as well.       *  
# See http://amcatnlo.cern.ch/FxFx_merging.htm for more details.       *  
#***********************************************************************  
 0        = ickkw            ! 0 no merging, 3 FxFx merging               
#***********************************************************************  
#                                                                         
#***********************************************************************  
# BW cutoff (M+/-bwcutoff*Gamma)                                       *  
#***********************************************************************  
 35  = bwcutoff                                                           
#***********************************************************************  
# Cuts on the jets                                                     *  
# When matching to a parton shower, these generation cuts should be    *  
# considerably softer than the analysis cuts.                          *  
# (more specific cuts can be specified in SubProcesses/cuts.f)         *  
#***********************************************************************  
   1  = jetalgo   ! FastJet jet algorithm (1=kT, 0=C/A, -1=anti-kT)       
 0.4  = jetradius ! The radius parameter for the jet algorithm            
   4  = ptj       ! Min jet transverse momentum                           
  -1  = etaj      ! Max jet abs(pseudo-rap) (a value .lt.0 means no cut)  
#***********************************************************************  
# Cuts on the charged leptons (e+, e-, mu+, mu-, tau+ and tau-)        *  
# (more specific gen cuts can be specified in SubProcesses/cuts.f)     *  
#***********************************************************************  
   0  = ptl   ! Min lepton transverse momentum                            
  -1  = etal  ! Max lepton abs(pseudo-rap) (a value .lt.0 means no cut)   
   0  = drll  ! Min distance between opposite sign lepton pairs           
  10  = mll   ! Min inv. mass of all oppositely charged lepton pairs      
#***********************************************************************  
# Photon-isolation cuts, according to hep-ph/9801442                   *  
# When ptgmin=0, all the other parameters are ignored                  *  
#***********************************************************************  
  20  = ptgmin    ! Min photon transverse momentum                        
  -1  = etagamma  ! Max photon abs(pseudo-rap)                            
 0.4  = R0gamma   ! Radius of isolation code                              
 1.0  = xn        ! n parameter of eq.(3.4) in hep-ph/9801442             
 1.0  = epsgamma  ! epsilon_gamma parameter of eq.(3.4) in hep-ph/980144  
 .true.  = isoEM  ! isolate photons from EM energy (photons and leptons)  
#***********************************************************************  
# maximal pdg code for quark to be considered as a jet                 *  
#***********************************************************************  
 5 = maxjetflavor                                                         
#***********************************************************************  
                                                               
#***********************************************************************  
#                       MadGraph/MadEvent                              *  
#                  http://madgraph.hep.uiuc.edu                        *  
#                                                                      *  
#                        run_card.dat                                  *  
#                                                                      *  
#  This file is used to set the parameters of the run.                 *  
#                                                                      *  
#  Some notation/conventions:                                          *  
#                                                                      *  
#   Lines starting with a hash (#) are info or comments                *  
#                                                                      *  
#   mind the format:   value    = variable     ! comment               *  
#***********************************************************************  
#                                                                         
#*******************                                                      
# Running parameters                                                      
#*******************                                                      
#                                                                         
#***********************************************************************  
# Tag name for the run (one word)                                      *  
#***********************************************************************  
  tag_1     = run_tag ! name of the run                                   
#***********************************************************************  
# Number of events (and their normalization) and the required          *  
# (relative) accuracy on the Xsec.                                     *  
# These values are ignored for fixed order runs                        *  
#***********************************************************************  
     1000000  = nevents    ! Number of unweighted events requested
    1000000 = nevents                                                     
#    -1 = req_acc ! Required accuracy (-1=auto determined from nevents)   
    -1 = nevt_job! Max number of events per job in event generation.      
                 !  (-1= no split).                                       
average = event_norm ! Normalize events to sum or average to the X sect.  
#***********************************************************************  
# Number of points per itegration channel (ignored for aMC@NLO runs)   *  
#***********************************************************************  
 100000   = npoints_FO_grid  ! number of points to set-up int. grids      
 5      = niters_FO_grid   ! number of iterations to set-up int. grids    
 500000   = npoints_FO_virt  ! number of points to compute Xsec (virt)    
 10      = niters_FO_virt   ! number of iter. to compute Xsec (virt)      
 1000000  = npoints_FO       ! number of points to compute Xsec (no virt  
 10      = niters_FO        ! number of iter. to compute Xsec (no virt)   
#***********************************************************************  
# Random number seed                                                   *  
#***********************************************************************  
         44 =  iseed                                                      
#***********************************************************************  
# Collider type and energy                                             *  
#***********************************************************************  
    1   = lpp1    ! beam 1 type (0 = no PDF)                              
    1   = lpp2    ! beam 2 type (0 = no PDF)                              
 4000   = ebeam1  ! beam 1 energy in GeV                                  
 4000   = ebeam2  ! beam 2 energy in GeV                                  
#***********************************************************************  
# PDF choice: this automatically fixes also alpha_s(MZ) and its evol.  *  
#***********************************************************************  
  lhapdf   = pdlabel   ! PDF set                                          
  21100    = lhaid     ! if pdlabel=lhapdf, this is the lhapdf number     
#***********************************************************************  
# Include the NLO Monte Carlo subtr. terms for the following parton    *  
# shower (HERWIG6 | HERWIGPP | PYTHIA6Q | PYTHIA6PT | PYTHIA8)         *  
# WARNING: PYTHIA6PT works only for processes without FSR!!!!          *  
#***********************************************************************  
#  HERWIG6   = parton_shower                                              
  PYTHIA8 = parton_shower                                                 
#***********************************************************************  
# Renormalization and factorization scales                             *  
# (Default functional form for the non-fixed scales is the sum of      *  
# the transverse masses of all final state particles and partons. This *  
# can be changed in SubProcesses/set_scales.f)                         *  
#***********************************************************************  
 T        = fixed_ren_scale  ! if .true. use fixed ren scale              
 T        = fixed_fac_scale  ! if .true. use fixed fac scale              
 86.600   = muR_ref_fixed    ! fixed ren reference scale                  
 86.600   = muF1_ref_fixed   ! fixed fact reference scale for pdf1        
 86.600   = muF2_ref_fixed   ! fixed fact reference scale for pdf2        
#***********************************************************************  
# Renormalization and factorization scales (advanced and NLO options)  *  
#***********************************************************************  
 T        = fixed_QES_scale  ! if .true. use fixed Ellis-Sexton scale     
 86.600   = QES_ref_fixed    ! fixed Ellis-Sexton reference scale         
 1        = muR_over_ref     ! ratio of current muR over reference muR    
 1        = muF1_over_ref    ! ratio of current muF1 over reference muF1  
 1        = muF2_over_ref    ! ratio of current muF2 over reference muF2  
 1        = QES_over_ref     ! ratio of current QES over reference QES    
#***********************************************************************  
# Reweight flags to get scale dependence and PDF uncertainty           *  
# For scale dependence: factor rw_scale_up/down around central scale   *  
# For PDF uncertainty: use LHAPDF with supported set                   *  
#***********************************************************************  
 .true.   = reweight_scale   ! reweight to get scale dependence           
  0.5     = rw_Rscale_down   ! lower bound for ren scale variations       
  2.0     = rw_Rscale_up     ! upper bound for ren scale variations       
  0.5     = rw_Fscale_down   ! lower bound for fact scale variations      
  2.0     = rw_Fscale_up     ! upper bound for fact scale variations      
 .false.  = reweight_PDF     ! reweight to get PDF uncertainty            
  21101   = PDF_set_min      ! First of the error PDF sets                
  21140   = PDF_set_max      ! Last of the error PDF sets                 
#***********************************************************************  
# Merging - WARNING! Applies merging only at the hard-event level.     *  
# After showering an MLM-type merging should be applied as well.       *  
# See http://amcatnlo.cern.ch/FxFx_merging.htm for more details.       *  
#***********************************************************************  
 0        = ickkw            ! 0 no merging, 3 FxFx merging               
#***********************************************************************  
#                                                                         
#***********************************************************************  
# BW cutoff (M+/-bwcutoff*Gamma)                                       *  
#***********************************************************************  
 35  = bwcutoff                                                           
#***********************************************************************  
# Cuts on the jets                                                     *  
# When matching to a parton shower, these generation cuts should be    *  
# considerably softer than the analysis cuts.                          *  
# (more specific cuts can be specified in SubProcesses/cuts.f)         *  
#***********************************************************************  
   1  = jetalgo   ! FastJet jet algorithm (1=kT, 0=C/A, -1=anti-kT)       
 0.4  = jetradius ! The radius parameter for the jet algorithm            
   4  = ptj       ! Min jet transverse momentum                           
  -1  = etaj      ! Max jet abs(pseudo-rap) (a value .lt.0 means no cut)  
#***********************************************************************  
# Cuts on the charged leptons (e+, e-, mu+, mu-, tau+ and tau-)        *  
# (more specific gen cuts can be specified in SubProcesses/cuts.f)     *  
#***********************************************************************  
   0  = ptl   ! Min lepton transverse momentum                            
  -1  = etal  ! Max lepton abs(pseudo-rap) (a value .lt.0 means no cut)   
   0  = drll  ! Min distance between opposite sign lepton pairs           
  10  = mll   ! Min inv. mass of all oppositely charged lepton pairs      
#***********************************************************************  
# Photon-isolation cuts, according to hep-ph/9801442                   *  
# When ptgmin=0, all the other parameters are ignored                  *  
#***********************************************************************  
  20  = ptgmin    ! Min photon transverse momentum                        
  -1  = etagamma  ! Max photon abs(pseudo-rap)                            
 0.4  = R0gamma   ! Radius of isolation code                              
 1.0  = xn        ! n parameter of eq.(3.4) in hep-ph/9801442             
 1.0  = epsgamma  ! epsilon_gamma parameter of eq.(3.4) in hep-ph/980144  
 .true.  = isoEM  ! isolate photons from EM energy (photons and leptons)  
#***********************************************************************  
# maximal pdg code for quark to be considered as a jet                 *  
#***********************************************************************  
 5 = maxjetflavor                                                         
#***********************************************************************  
                                                               
#***********************************************************************  
#                       MadGraph/MadEvent                              *  
#                  http://madgraph.hep.uiuc.edu                        *  
#                                                                      *  
#                        run_card.dat                                  *  
#                                                                      *  
#  This file is used to set the parameters of the run.                 *  
#                                                                      *  
#  Some notation/conventions:                                          *  
#                                                                      *  
#   Lines starting with a hash (#) are info or comments                *  
#                                                                      *  
#   mind the format:   value    = variable     ! comment               *  
#***********************************************************************  
#                                                                         
#*******************                                                      
# Running parameters                                                      
#*******************                                                      
#                                                                         
#***********************************************************************  
# Tag name for the run (one word)                                      *  
#***********************************************************************  
  tag_1     = run_tag ! name of the run                                   
#***********************************************************************  
# Number of events (and their normalization) and the required          *  
# (relative) accuracy on the Xsec.                                     *  
# These values are ignored for fixed order runs                        *  
#***********************************************************************  
     1000000  = nevents    ! Number of unweighted events requested
    1000000 = nevents                                                     
#    -1 = req_acc ! Required accuracy (-1=auto determined from nevents)   
    -1 = nevt_job! Max number of events per job in event generation.      
                 !  (-1= no split).                                       
average = event_norm ! Normalize events to sum or average to the X sect.  
#***********************************************************************  
# Number of points per itegration channel (ignored for aMC@NLO runs)   *  
#***********************************************************************  
 100000   = npoints_FO_grid  ! number of points to set-up int. grids      
 5      = niters_FO_grid   ! number of iterations to set-up int. grids    
 500000   = npoints_FO_virt  ! number of points to compute Xsec (virt)    
 10      = niters_FO_virt   ! number of iter. to compute Xsec (virt)      
 1000000  = npoints_FO       ! number of points to compute Xsec (no virt  
 10      = niters_FO        ! number of iter. to compute Xsec (no virt)   
#***********************************************************************  
# Random number seed                                                   *  
#***********************************************************************  
         44 =  iseed                                                      
#***********************************************************************  
# Collider type and energy                                             *  
#***********************************************************************  
    1   = lpp1    ! beam 1 type (0 = no PDF)                              
    1   = lpp2    ! beam 2 type (0 = no PDF)                              
 4000   = ebeam1  ! beam 1 energy in GeV                                  
 4000   = ebeam2  ! beam 2 energy in GeV                                  
#***********************************************************************  
# PDF choice: this automatically fixes also alpha_s(MZ) and its evol.  *  
#***********************************************************************  
  lhapdf   = pdlabel   ! PDF set                                          
  21100    = lhaid     ! if pdlabel=lhapdf, this is the lhapdf number     
#***********************************************************************  
# Include the NLO Monte Carlo subtr. terms for the following parton    *  
# shower (HERWIG6 | HERWIGPP | PYTHIA6Q | PYTHIA6PT | PYTHIA8)         *  
# WARNING: PYTHIA6PT works only for processes without FSR!!!!          *  
#***********************************************************************  
#  HERWIG6   = parton_shower                                              
  PYTHIA8 = parton_shower                                                 
#***********************************************************************  
# Renormalization and factorization scales                             *  
# (Default functional form for the non-fixed scales is the sum of      *  
# the transverse masses of all final state particles and partons. This *  
# can be changed in SubProcesses/set_scales.f)                         *  
#***********************************************************************  
 T        = fixed_ren_scale  ! if .true. use fixed ren scale              
 T        = fixed_fac_scale  ! if .true. use fixed fac scale              
 86.600   = muR_ref_fixed    ! fixed ren reference scale                  
 86.600   = muF1_ref_fixed   ! fixed fact reference scale for pdf1        
 86.600   = muF2_ref_fixed   ! fixed fact reference scale for pdf2        
#***********************************************************************  
# Renormalization and factorization scales (advanced and NLO options)  *  
#***********************************************************************  
 T        = fixed_QES_scale  ! if .true. use fixed Ellis-Sexton scale     
 86.600   = QES_ref_fixed    ! fixed Ellis-Sexton reference scale         
 1        = muR_over_ref     ! ratio of current muR over reference muR    
 1        = muF1_over_ref    ! ratio of current muF1 over reference muF1  
 1        = muF2_over_ref    ! ratio of current muF2 over reference muF2  
 1        = QES_over_ref     ! ratio of current QES over reference QES    
#***********************************************************************  
# Reweight flags to get scale dependence and PDF uncertainty           *  
# For scale dependence: factor rw_scale_up/down around central scale   *  
# For PDF uncertainty: use LHAPDF with supported set                   *  
#***********************************************************************  
 .true.   = reweight_scale   ! reweight to get scale dependence           
  0.5     = rw_Rscale_down   ! lower bound for ren scale variations       
  2.0     = rw_Rscale_up     ! upper bound for ren scale variations       
  0.5     = rw_Fscale_down   ! lower bound for fact scale variations      
  2.0     = rw_Fscale_up     ! upper bound for fact scale variations      
 .false.  = reweight_PDF     ! reweight to get PDF uncertainty            
  21101   = PDF_set_min      ! First of the error PDF sets                
  21140   = PDF_set_max      ! Last of the error PDF sets                 
#***********************************************************************  
# Merging - WARNING! Applies merging only at the hard-event level.     *  
# After showering an MLM-type merging should be applied as well.       *  
# See http://amcatnlo.cern.ch/FxFx_merging.htm for more details.       *  
#***********************************************************************  
 0        = ickkw            ! 0 no merging, 3 FxFx merging               
#***********************************************************************  
#                                                                         
#***********************************************************************  
# BW cutoff (M+/-bwcutoff*Gamma)                                       *  
#***********************************************************************  
 35  = bwcutoff                                                           
#***********************************************************************  
# Cuts on the jets                                                     *  
# When matching to a parton shower, these generation cuts should be    *  
# considerably softer than the analysis cuts.                          *  
# (more specific cuts can be specified in SubProcesses/cuts.f)         *  
#***********************************************************************  
   1  = jetalgo   ! FastJet jet algorithm (1=kT, 0=C/A, -1=anti-kT)       
 0.4  = jetradius ! The radius parameter for the jet algorithm            
   4  = ptj       ! Min jet transverse momentum                           
  -1  = etaj      ! Max jet abs(pseudo-rap) (a value .lt.0 means no cut)  
#***********************************************************************  
# Cuts on the charged leptons (e+, e-, mu+, mu-, tau+ and tau-)        *  
# (more specific gen cuts can be specified in SubProcesses/cuts.f)     *  
#***********************************************************************  
   0  = ptl   ! Min lepton transverse momentum                            
  -1  = etal  ! Max lepton abs(pseudo-rap) (a value .lt.0 means no cut)   
   0  = drll  ! Min distance between opposite sign lepton pairs           
  10  = mll   ! Min inv. mass of all oppositely charged lepton pairs      
#***********************************************************************  
# Photon-isolation cuts, according to hep-ph/9801442                   *  
# When ptgmin=0, all the other parameters are ignored                  *  
#***********************************************************************  
  20  = ptgmin    ! Min photon transverse momentum                        
  -1  = etagamma  ! Max photon abs(pseudo-rap)                            
 0.4  = R0gamma   ! Radius of isolation code                              
 1.0  = xn        ! n parameter of eq.(3.4) in hep-ph/9801442             
 1.0  = epsgamma  ! epsilon_gamma parameter of eq.(3.4) in hep-ph/980144  
 .true.  = isoEM  ! isolate photons from EM energy (photons and leptons)  
#***********************************************************************  
# maximal pdg code for quark to be considered as a jet                 *  
#***********************************************************************  
 5 = maxjetflavor                                                         
#***********************************************************************  
  </MGRunCard>

                                                            
  <MonteCarloMasses>                                                      
       1   0.330000E+00                                                   
       2   0.330000E+00                                                   
       3   0.500000E+00                                                   
       4   0.150000E+01                                                   
       5   0.480000E+01                                                   
      21   0.000000E+00                                                   
                                                        
       1   0.330000E+00                                                   
       2   0.330000E+00                                                   
       3   0.500000E+00                                                   
       4   0.150000E+01                                                   
       5   0.480000E+01                                                   
      21   0.000000E+00                                                   
                                                        
       1   0.330000E+00                                                   
       2   0.330000E+00                                                   
       3   0.500000E+00                                                   
       4   0.150000E+01                                                   
       5   0.480000E+01                                                   
      21   0.000000E+00                                                   
                                                        
       1   0.330000E+00                                                   
       2   0.330000E+00                                                   
       3   0.500000E+00                                                   
       4   0.150000E+01                                                   
       5   0.480000E+01                                                   
      21   0.000000E+00                                                   
  </MonteCarloMasses>

                                                     
  <initrwgt>                                                              
    <weightgroup combine="envelope" type="scale_variation">               
      <weight id="1001"> muR=0.10000E+01 muF=0.10000E+01  muR=0.10000E+01 muF=0.10000E+01  muR=0.10000E+01 muF=0.10000E+01  muR=0.10000E+01 muF=0.10000E+01 </weight>

        
      <weight id="1002"> muR=0.10000E+01 muF=0.20000E+01  muR=0.10000E+01 muF=0.20000E+01  muR=0.10000E+01 muF=0.20000E+01  muR=0.10000E+01 muF=0.20000E+01 </weight>

        
      <weight id="1003"> muR=0.10000E+01 muF=0.50000E+00  muR=0.10000E+01 muF=0.50000E+00  muR=0.10000E+01 muF=0.50000E+00  muR=0.10000E+01 muF=0.50000E+00 </weight>

        
      <weight id="1004"> muR=0.20000E+01 muF=0.10000E+01  muR=0.20000E+01 muF=0.10000E+01  muR=0.20000E+01 muF=0.10000E+01  muR=0.20000E+01 muF=0.10000E+01 </weight>

        
      <weight id="1005"> muR=0.20000E+01 muF=0.20000E+01  muR=0.20000E+01 muF=0.20000E+01  muR=0.20000E+01 muF=0.20000E+01  muR=0.20000E+01 muF=0.20000E+01 </weight>

        
      <weight id="1006"> muR=0.20000E+01 muF=0.50000E+00  muR=0.20000E+01 muF=0.50000E+00  muR=0.20000E+01 muF=0.50000E+00  muR=0.20000E+01 muF=0.50000E+00 </weight>

        
      <weight id="1007"> muR=0.50000E+00 muF=0.10000E+01  muR=0.50000E+00 muF=0.10000E+01  muR=0.50000E+00 muF=0.10000E+01  muR=0.50000E+00 muF=0.10000E+01 </weight>

        
      <weight id="1008"> muR=0.50000E+00 muF=0.20000E+01  muR=0.50000E+00 muF=0.20000E+01  muR=0.50000E+00 muF=0.20000E+01  muR=0.50000E+00 muF=0.20000E+01 </weight>

        
      <weight id="1009"> muR=0.50000E+00 muF=0.50000E+00  muR=0.50000E+00 muF=0.50000E+00  muR=0.50000E+00 muF=0.50000E+00  muR=0.50000E+00 muF=0.50000E+00 </weight>

        
    </weightgroup>

                                                        
  </initrwgt>

                                                             
  </header>

                                                               
  
<init>
     2212     2212           4000           4000   -1   -1 21100 21100   -4    1
        50.1091      0.0891854        50.1091     66
<generator name="SomeGen1" version="1.2.3"> some additional comments </generator>
<generator name="SomeGen2" version="a.x.3"> some other comments </generator>
<generator name="SomeGen3" version="+.#.@"> more comments </generator>
<weightinfo name="test" muf="2"/>
<initrwgt>
<weightgroup type="scale_variation" combine="envelope">
<weight id="1001"> muR=0.10000E+01 muF=0.10000E+01 </weight>
<weight id="1002"> muR=0.10000E+01 muF=0.20000E+01 </weight>
<weight id="1003"> muR=0.10000E+01 muF=0.50000E+00 </weight>
<weight id="1004"> muR=0.20000E+01 muF=0.10000E+01 </weight>
<weight id="1005"> muR=0.20000E+01 muF=0.20000E+01 </weight>
<weight id="1006"> muR=0.20000E+01 muF=0.50000E+00 </weight>
<weight id="1007"> muR=0.50000E+00 muF=0.10000E+01 </weight>
<weight id="1008"> muR=0.50000E+00 muF=0.20000E+01 </weight>
<weight id="1009"> muR=0.50000E+00 muF=0.50000E+00 </weight>
</weightgroup>
</initrwgt>
# Just some random garbage...
</init>
<event>
    5     66        50.1091        141.377     0.00755639        0.12114
        5 -1    0    0  501    0              0              0        143.229        143.309            4.8 0 0
        2 -1    0    0  502    0              0              0       -935.443        935.443           0.33 0 0
       24  1    1    2    0    0       -84.2588       -157.086       -106.296        222.572         80.398 0 0
        5  1    1    2  501    0       -136.681       -36.3074       -40.6145        147.216            4.8 0 0
        1  1    1    2  502    0         220.94        193.393       -645.304        708.965           0.33 0 0
<weights> 1 50.109 45.746 52.581 50.109 45.746 52.581 50.109 45.746 52.581</weights>
<rwgt>
<wgt id="1001"> 50.109</weight>
</rwgt>
<scales muf="90.1" mur="90.2" mups="90.3" newscale="90.4"> random stuff </scales>
#aMCatNLO 1  6  2  0  0 0.00000000E+00 0.00000000E+00 9  0  0 0.10000000E+01 0.91292678E+00 0.10493312E+01 0.00000000E+00 0.00000000E+00
#aMCatNLO 1  6  2  0  0 0.00000000E+00 0.00000000E+00 9  0  0 0.10000000E+01 0.91292678E+00 0.10493312E+01 0.00000000E+00 0.00000000E+00
#aMCatNLO 1  6  2  0  0 0.00000000E+00 0.00000000E+00 9  0  0 0.10000000E+01 0.91292678E+00 0.10493312E+01 0.00000000E+00 0.00000000E+00
#aMCatNLO 1  6  2  0  0 0.00000000E+00 0.00000000E+00 9  0  0 0.10000000E+01 0.91292678E+00 0.10493312E+01 0.00000000E+00 0.00000000E+00
#aMCatNLO 1  6  2  0  0 0.00000000E+00 0.00000000E+00 9  0  0 0.10000000E+01 0.91292678E+00 0.10493312E+01 0.00000000E+00 0.00000000E+00
</event>
<event>
    5     66        50.1091        49.1151     0.00755639        0.12114
        5 -1    0    0  501    0              0              0        26.5544        26.9847            4.8 0 0
        2 -1    0    0  502    0             -0             -0       -492.818        492.818           0.33 0 0
       24  1    1    2    0    0       -73.9306        35.8963       -184.742        217.596         80.398 0 0
        5  1    1    2  501    0        28.0317       -53.3685       -144.174        156.343            4.8 0 0
        1  1    1    2  502    0        45.8988        17.4722       -137.348        145.865           0.33 0 0
<weights> 50.1091 50.109 42.208 56.435 50.109 42.208 56.435 50.109 42.208 56.435</weights>
<rwgt>
<wgt id="1001"> 50.109</weight>
</rwgt>
#aMCatNLO 1  6  5  0  0 0.00000000E+00 0.00000000E+00 9  0  0 0.99999998E+00 0.84231243E+00 0.11262380E+01 0.00000000E+00 0.00000000E+00
#aMCatNLO 1  6  2  0  0 0.00000000E+00 0.00000000E+00 9  0  0 0.10000000E+01 0.91292678E+00 0.10493312E+01 0.00000000E+00 0.00000000E+00
#aMCatNLO 1  6  2  0  0 0.00000000E+00 0.00000000E+00 9  0  0 0.10000000E+01 0.91292678E+00 0.10493312E+01 0.00000000E+00 0.00000000E+00
#aMCatNLO 1  6  2  0  0 0.00000000E+00 0.00000000E+00 9  0  0 0.10000000E+01 0.91292678E+00 0.10493312E+01 0.00000000E+00 0.00000000E+00
</event>
<event>
    6     66        50.1091        88.3446     0.00755639        0.12114
        2 -1    0    0  502    0              0              0        627.282        627.282           0.33 0 0
        5 -1    0    0  501    0              0              0       -44.4814        44.7397            4.8 0 0
        6  2    1    2  501    0       -59.3507        72.2445        210.378        288.042        173.111 0 0
       24  1    3    3    0    0        28.7474        66.6929         115.45        158.325         80.398 0 0
        5  1    3    3  501    0       -88.0981        5.55167        94.9288        129.717            4.8 0 0
        1  1    1    2  502    0        59.3507       -72.2445        372.422        383.979           0.33 0 0
<weights> 50.1091 50.109 43.255 55.234 50.109 43.255 55.234 50.109 43.255 55.234</weights>
<rwgt>
<wgt id="1001"> 50.109</weight>
</rwgt>
#aMCatNLO 1  6  2  0  0 0.00000000E+00 0.00000000E+00 9  0  0 0.10000000E+01 0.86321681E+00 0.11022720E+01 0.00000000E+00 0.00000000E+00
#aMCatNLO 1  6  2  0  0 0.00000000E+00 0.00000000E+00 9  0  0 0.10000000E+01 0.91292678E+00 0.10493312E+01 0.00000000E+00 0.00000000E+00
#aMCatNLO 1  6  2  0  0 0.00000000E+00 0.00000000E+00 9  0  0 0.10000000E+01 0.91292678E+00 0.10493312E+01 0.00000000E+00 0.00000000E+00
#aMCatNLO 1  6  2  0  0 0.00000000E+00 0.00000000E+00 9  0  0 0.10000000E+01 0.91292678E+00 0.10493312E+01 0.00000000E+00 0.00000000E+00
</event>
<event>
    5     66        50.1091         34.744     0.00755639        0.12114
        2 -1    0    0  502    0              0              0        185.677        185.678           0.33 0 0
        5 -1    0    0  501    0              0              0       -92.9711        93.0949            4.8 0 0
       24  1    1    2    0    0       -16.5099       -44.1737       -34.5494        99.4052         80.398 0 0
        5  1    1    2  501    0       -4.81517        71.6019        33.4267        79.3121            4.8 0 0
        1  1    1    2  502    0        21.3251       -27.4283         93.829        100.055           0.33 0 0
<weights> 50.1091 50.109 42.213 56.425 50.109 42.213 56.425 50.109 42.213 56.425</weights>
<rwgt>
<wgt id="1001"> 50.109</weight>
</rwgt>
# 10 20 30
#aMCatNLO 1  6  2  0  0 0.00000000E+00 0.00000000E+00 9  0  0 0.10000000E+01 0.84242974E+00 0.11260412E+01 0.00000000E+00 0.00000000E+00
#aMCatNLO 1  6  2  0  0 0.00000000E+00 0.00000000E+00 9  0  0 0.10000000E+01 0.91292678E+00 0.10493312E+01 0.00000000E+00 0.00000000E+00
#aMCatNLO 1  6  2  0  0 0.00000000E+00 0.00000000E+00 9  0  0 0.10000000E+01 0.91292678E+00 0.10493312E+01 0.00000000E+00 0.00000000E+00
#aMCatNLO 1  6  2  0  0 0.00000000E+00 0.00000000E+00 9  0  0 0.10000000E+01 0.91292678E+00 0.10493312E+01 0.00000000E+00 0.00000000E+00
</event>
<event>
    6     66        50.1091        73.6022     0.00755639        0.12114
        2 -1    0    0  502    0              0              0         956.01         956.01           0.33 0 0
        5 -1    0    0  501    0              0              0       -97.2438        97.3622            4.8 0 0
        6  2    1    2  501    0       -72.3962        13.2692       -3.75719        187.714        172.642 0 0
       24  1    3    3    0    0       -8.81906       -51.4371        7.67263        96.1575         80.398 0 0
        5  1    3    3  501    0       -63.5771        64.7063       -11.4298        91.5567            4.8 0 0
        1  1    1    2  502    0        72.3962       -13.2692        862.523        865.658           0.33 0 0
<weights> 50.1091 50.109 45.296 53.038 50.109 45.296 53.038 50.109 45.296 53.038</weights>
<rwgt>
<wgt id="1001"> 50.109</weight>
</rwgt>
#aMCatNLO 1  6  5  0  0 0.00000000E+00 0.00000000E+00 9  0  0 0.10000000E+01 0.90394162E+00 0.10584568E+01 0.00000000E+00 0.00000000E+00
# 10 20 30
</event>
<event>
    6     66        50.1091        60.1825     0.00755639        0.12114
        5 -1    0    0  501    0              0              0        66.6174        66.7901            4.8 0 0
        2 -1    0    0  502    0              0              0       -990.955        990.955           0.33 0 0
        6  2    1    2  501    0        59.7272        7.38875       -63.2344        194.541        173.856 0 0
       24  1    3    3    0    0       -15.0676       -1.70427        17.8608        83.7424         80.398 0 0
        5  1    3    3  501    0        74.7948        9.09301       -81.0952        110.799            4.8 0 0
        1  1    1    2  502    0       -59.7272       -7.38875       -861.103        863.203           0.33 0 0
<weights> 50.1091 50.109 44.921 53.424 50.109 44.921 53.424 50.109 44.921 53.424</weights>
<rwgt>
<wgt id="1001"> 50.109</weight>
</rwgt>
#aMCatNLO 1  6  2  0  0 0.00000000E+00 0.00000000E+00 9  0  0 0.10000000E+01 0.89647341E+00 0.10661591E+01 0.00000000E+00 0.00000000E+00
</event>
<event>
    6     66        50.1091        33.6222     0.00755639        0.12114
        5 -1    0    0  501    0              0              0        198.328        198.386            4.8 0 0
        2 -1    0    0  502    0              0              0       -61.5517        61.5526           0.33 0 0
        6  2    1    2  501    0       -14.4775       -30.3441        141.868        225.932        172.594 0 0
       24  1    3    3    0    0        34.1173        21.4356        32.8568        95.7438         80.398 0 0
        5  1    3    3  501    0       -48.5948       -51.7797        109.011        130.189            4.8 0 0
        1  1    1    2  502    0        14.4775        30.3441       -5.09204        34.0059           0.33 0 0
<weights> 50.1091 50.109 41.797 56.868 50.109 41.797 56.868 50.109 41.797 56.868</weights>
<rwgt>
<wgt id="1001"> 50.109</weight>
</rwgt>
#aMCatNLO 1  6  2  0  0 0.00000000E+00 0.00000000E+00 9  0  0 0.99999999E+00 0.83411743E+00 0.11348802E+01 0.00000000E+00 0.00000000E+00
</event>
<event>
    6     66        50.1091        5.34655     0.00755639        0.12114
        2 -1    0    0  502    0              0              0        893.569        893.569           0.33 0 0
        5 -1    0    0  501    0              0              0       -24.3392         24.808            4.8 0 0
        6  2    1    2  501    0        4.47415       -2.92699        282.552        331.675         173.62 0 0
       24  1    3    3    0    0       -36.5151        22.2566        73.2681        116.879         80.398 0 0
        5  1    3    3  501    0        40.9893       -25.1836        209.284        214.796            4.8 0 0
        1  1    1    2  502    0       -4.47415        2.92699        586.677        586.702           0.33 0 0
<weights> 50.1091 50.109 43.443 55.012 50.109 43.443 55.012 50.109 43.443 55.012</weights>
<rwgt>
<wgt id="1001"> 50.109</weight>
</rwgt>
#aMCatNLO 1  6  5  0  0 0.00000000E+00 0.00000000E+00 9  0  0 0.10000000E+01 0.86696618E+00 0.10978460E+01 0.00000000E+00 0.00000000E+00
</event>
<event>
    6     66        50.1091        43.3342     0.00755639        0.12114
        2 -1    0    0  502    0              0              0        850.522        850.522           0.33 0 0
        5 -1    0    0  501    0              0              0       -22.4656        22.9727            4.8 0 0
        6  2    1    2  501    0       -54.4731       -27.3226        390.323        431.539        173.668 0 0
       24  1    3    3    0    0       -42.7575        14.3717        92.6726        130.716         80.398 0 0
        5  1    3    3  501    0       -11.7156       -41.6943         297.65        300.823            4.8 0 0
        1  1    1    2  502    0        54.4731        27.3226        437.733        441.955           0.33 0 0
<weights> 50.1091 50.109 43.223 55.259 50.109 43.223 55.259 50.109 43.223 55.259</weights>
<rwgt>
<wgt id="1001"> 50.109</weight>
</rwgt>
#aMCatNLO 1  6  2  0  0 0.00000000E+00 0.00000000E+00 9  0  0 0.99999990E+00 0.86258598E+00 0.11027773E+01 0.00000000E+00 0.00000000E+00
</event>
<event>
    5     66        50.1091        45.1107     0.00755639        0.12114
        5 -1    0    0  502    0              0              0        190.093        190.154            4.8 0 0
       -1 -1    0    0    0  501              0              0       -130.912        130.912           0.33 0 0
       24  1    1    2    0    0       -9.75774       -45.2674        46.6778         103.86         80.398 0 0
        5  1    1    2  502    0        53.2115        57.3796        95.0038        123.177            4.8 0 0
       -2  1    1    2    0  501       -43.4538       -12.1122       -82.5001        94.0282           0.33 0 0
<weights> 50.1091 50.109 42.788 55.679 50.109 42.788 55.679 50.109 42.788 55.679</weights>
<rwgt>
<wgt id="1001"> 50.109</weight>
</rwgt>
#aMCatNLO 1  6  2  0  0 0.00000000E+00 0.00000000E+00 9  0  0 0.10000000E+01 0.85390250E+00 0.11111471E+01 0.00000000E+00 0.00000000E+00
</event>
<event>
    6     66        50.1091        29.6795     0.00755639        0.12114
        5 -1    0    0  501    0              0              0        146.991         147.07            4.8 0 0
        4 -1    0    0  502    0              0              0       -224.546        224.551            1.5 0 0
        6  2    1    2  501    0       0.262398       -29.6782        92.8014        198.698         173.17 0 0
       24  1    3    3    0    0       -64.0412       -40.0225        61.2551        126.171         80.398 0 0
        5  1    3    3  501    0        64.3036        10.3443        31.5463         72.527            4.8 0 0
        3  1    1    2  502    0      -0.262398        29.6782       -170.356        172.923            0.5 0 0
<weights> 50.1091 50.109 41.108 57.312 50.109 41.108 57.312 50.109 41.108 57.312</weights>
<rwgt>
<wgt id="1001"> 50.109</weight>
</rwgt>
#aMCatNLO 1  6  2  0  0 0.00000000E+00 0.00000000E+00 9  0  0 0.10000000E+01 0.82036423E+00 0.11437313E+01 0.00000000E+00 0.00000000E+00
</event>
<event>
    5     66        50.1091        43.2925     0.00755639        0.12114
        2 -1    0    0  502    0              0              0        566.115        566.115           0.33 0 0
        5 -1    0    0  501    0              0              0       -31.9693        32.3277            4.8 0 0
       24  1    1    2    0    0        102.502        37.4252        259.489        292.755         80.398 0 0
        5  1    1    2  501    0        -36.024        23.9557        96.8741        106.204            4.8 0 0
        1  1    1    2  502    0       -66.4781        -61.381        177.782        199.483           0.33 0 0
<weights> 50.1091 50.109 42.67 55.896 50.109 42.67 55.896 50.109 42.67 55.896</weights>
<rwgt>
<wgt id="1001"> 50.109</weight>
</rwgt>
#aMCatNLO 1  6  5  0  0 0.00000000E+00 0.00000000E+00 9  0  0 0.99999998E+00 0.85154036E+00 0.11154930E+01 0.00000000E+00 0.00000000E+00
</event>
<event>
    6     66        50.1091        24.4515     0.00755639        0.12114
        2 -1    0    0  502    0              0              0        106.025        106.026           0.33 0 0
        5 -1    0    0  501    0              0              0       -684.937        684.954            4.8 0 0
        6  2    1    2  501    0        23.6676        47.8859       -665.203        689.492        173.351 0 0
       24  1    3    3    0    0        39.0613        66.7703       -252.604        276.146         80.398 0 0
        5  1    3    3  501    0       -15.3937       -18.8844       -412.599        413.346            4.8 0 0
        1  1    1    2  502    0       -23.6676       -47.8859        86.2918        101.487           0.33 0 0
<weights> 50.1091 50.109 44.658 53.664 50.109 44.658 53.664 50.109 44.658 53.664</weights>
<rwgt>
<wgt id="1001"> 50.109</weight>
</rwgt>
#aMCatNLO 1  6  2  0  0 0.00000000E+00 0.00000000E+00 9  0  0 0.10000000E+01 0.89122271E+00 0.10709391E+01 0.00000000E+00 0.00000000E+00
</event>
<event>
    5     66        50.1091        37.4828     0.00755639        0.12114
        5 -1    0    0  501    0              0              0        6.44505        8.03608            4.8 0 0
        2 -1    0    0  502    0              0              0       -1565.68        1565.68           0.33 0 0
       24  1    1    2    0    0        11.9305        22.4535       -360.191         369.93         80.398 0 0
        5  1    1    2  501    0       -11.3378       -59.9278       -946.647        948.621            4.8 0 0
        1  1    1    2  502    0      -0.592699        37.4743       -252.398        255.165           0.33 0 0
<weights> 50.1091 50.109 44.102 54.277 50.109 44.102 54.277 50.109 44.102 54.277</weights>
<rwgt>
<wgt id="1001"> 50.109</weight>
</rwgt>
#aMCatNLO 1  6  2  0  0 0.00000000E+00 0.00000000E+00 9  0  0 0.10000000E+01 0.88012569E+00 0.10831674E+01 0.00000000E+00 0.00000000E+00
</event>
<event>
    5     66        50.1091        10.5734     0.00755639        0.12114
        5 -1    0    0  501    0              0              0        137.485        137.568            4.8 0 0
        2 -1    0    0  502    0             -0             -0       -278.446        278.447           0.33 0 0
       24  1    1    2    0    0       -18.4193       -8.96445       -16.4336        84.5786         80.398 0 0
        5  1    1    2  501    0        21.3708        19.1173        101.285        105.375            4.8 0 0
        1  1    1    2  502    0       -2.95149       -10.1528       -225.814        226.061           0.33 0 0
<weights> 50.1091 50.109 43.242 55.257 50.109 43.242 55.257 50.109 43.242 55.257</weights>
<rwgt>
<wgt id="1001"> 50.109</weight>
</rwgt>
#aMCatNLO 1  6  5  0  0 0.00000000E+00 0.00000000E+00 9  0  0 0.99999999E+00 0.86294167E+00 0.11027455E+01 0.00000000E+00 0.00000000E+00
</event>
<event>
    6     66        50.1091        6.81081     0.00755639        0.12114
        2 -1    0    0  502    0              0              0        2222.38        2222.38           0.33 0 0
        5 -1    0    0  501    0              0              0       -16.1124        16.8122            4.8 0 0
        6  2    1    2  501    0        4.68375       -4.94463         445.12        478.032        174.172 0 0
       24  1    3    3    0    0        12.5451        11.8033        450.685        458.124         80.398 0 0
        5  1    3    3  501    0       -7.86133       -16.7479       -5.56509        19.9074            4.8 0 0
        1  1    1    2  502    0       -4.68375        4.94463        1761.15        1761.16           0.33 0 0
<weights> 50.1091 50.109 46.874 51.42 50.109 46.874 51.42 50.109 46.874 51.42</weights>
<rwgt>
<wgt id="1001"> 50.109</weight>
</rwgt>
#aMCatNLO 1  6  2  0  0 0.00000000E+00 0.00000000E+00 9  0  0 0.99999999E+00 0.93543106E+00 0.10261651E+01 0.00000000E+00 0.00000000E+00
</event>
<event>
    5     66        50.1091        29.3329     0.00755639        0.12114
        2 -1    0    0  502    0              0              0        1100.41        1100.41           0.33 0 0
        5 -1    0    0  501    0              0              0       -14.9328        15.6853            4.8 0 0
       24  1    1    2    0    0       -51.6471       -14.0624        152.631        180.624         80.398 0 0
        5  1    1    2  501    0        33.7842       -9.20115        324.738        326.656            4.8 0 0
        1  1    1    2  502    0        17.8629        23.2635        608.113         608.82           0.33 0 0
<weights> 50.1091 50.109 43.557 54.885 50.109 43.557 54.885 50.109 43.557 54.885</weights>
<rwgt>
<wgt id="1001"> 50.109</weight>
</rwgt>
#aMCatNLO 1  6  2  0  0 0.00000000E+00 0.00000000E+00 9  0  0 0.99999998E+00 0.86923396E+00 0.10953151E+01 0.00000000E+00 0.00000000E+00
</event>
<event>
    6     66        50.1091        76.7415     0.00755639        0.12114
        5 -1    0    0  501    0              0              0        44.9839        45.2392            4.8 0 0
        2 -1    0    0  502    0             -0             -0       -607.928        607.928           0.33 0 0
        6  2    1    2  501    0       -76.5739        5.06533       -176.053        258.739        173.383 0 0
       24  1    3    3    0    0       -28.2069        68.7594       -101.644        149.395         80.398 0 0
        5  1    3    3  501    0        -48.367       -63.6941       -74.4088        109.344            4.8 0 0
        1  1    1    2  502    0        76.5739       -5.06533       -386.891        394.429           0.33 0 0
<weights> 50.1091 50.109 43.201 55.295 50.109 43.201 55.295 50.109 43.201 55.295</weights>
<rwgt>
<wgt id="1001"> 50.109</weight>
</rwgt>
#aMCatNLO 1  6  5  0  0 0.00000000E+00 0.00000000E+00 9  0  0 0.99999991E+00 0.86214536E+00 0.11034873E+01 0.00000000E+00 0.00000000E+00
</event>
<event>
    6     66        50.1091        41.0604     0.00755639        0.12114
        5 -1    0    0  501    0              0              0        109.291        109.396            4.8 0 0
        2 -1    0    0  502    0             -0             -0       -692.809        692.809           0.33 0 0
        6  2    1    2  501    0        -114.92       -45.3003       -7.58007         213.17        173.566 0 0
       24  1    3    3    0    0       -77.9583       -27.2856       -72.5033        136.171         80.398 0 0
        5  1    3    3  501    0       -36.9621       -18.0147        64.9232        76.9986            4.8 0 0
        1  1    1    2  502    0         114.92        45.3003       -575.938        589.036           0.33 0 0
<weights> 50.1091 50.109 44.583 53.79 50.109 44.583 53.79 50.109 44.583 53.79</weights>
<rwgt>
<wgt id="1001"> 50.109</weight>
</rwgt>
#aMCatNLO 1  6  5  0  0 0.00000000E+00 0.00000000E+00 9  0  0 0.10000000E+01 0.88972222E+00 0.10734558E+01 0.00000000E+00 0.00000000E+00
</event>
<event>
    5     66        50.1091        28.5504     0.00755639        0.12114
        5 -1    0    0  501    0              0              0        51.3079        51.5319            4.8 0 0
        2 -1    0    0  502    0              0              0       -420.094        420.094           0.33 0 0
       24  1    1    2    0    0         52.659       -95.2059       -215.589        254.518         80.398 0 0
        5  1    1    2  501    0       -27.2855        8.10038        9.86616        30.5041            4.8 0 0
        1  1    1    2  502    0       -25.3735        87.1055       -163.064        186.604           0.33 0 0
<weights> 50.1091 50.109 42.663 55.911 50.109 42.663 55.911 50.109 42.663 55.911</weights>
<rwgt>
<wgt id="1001"> 50.109</weight>
</rwgt>
#aMCatNLO 1  6  2  0  0 0.00000000E+00 0.00000000E+00 9  0  0 0.10000001E+01 0.85140627E+00 0.11157941E+01 0.00000000E+00 0.00000000E+00
</event>
<event>
    5     66        50.1091        13.9998     0.00755639        0.12114
        2 -1    0    0  502    0              0              0         1755.2         1755.2           0.33 0 0
        5 -1    0    0  501    0              0              0       -5.48063        7.28542            4.8 0 0
       24  1    1    2    0    0       -62.1789       -22.9636        1498.29        1501.91         80.398 0 0
        5  1    1    2  501    0        32.7576         19.923        132.038        137.576            4.8 0 0
        1  1    1    2  502    0        29.4212         3.0406        119.397        123.006           0.33 0 0
<weights> 50.1091 50.109 44.501 53.843 50.109 44.501 53.843 50.109 44.501 53.843</weights>
<rwgt>
<wgt id="1001"> 50.109</weight>
</rwgt>
#aMCatNLO 1  6  5  0  0 0.00000000E+00 0.00000000E+00 9  0  0 0.99999992E+00 0.88807951E+00 0.10745215E+01 0.00000000E+00 0.00000000E+00
</event>
<event>
    6     66        50.1091        45.9955     0.00755639        0.12114
        2 -1    0    0  502    0              0              0         948.74         948.74           0.33 0 0
        5 -1    0    0  501    0              0              0        -35.235        35.5604            4.8 0 0
        6  2    1    2  501    0       -44.0605       -13.2005        198.171        267.489        173.675 0 0
       24  1    3    3    0    0        -84.544        10.1545        84.2678        144.276         80.398 0 0
        5  1    3    3  501    0        40.4835        -23.355        113.903        123.212            4.8 0 0
        1  1    1    2  502    0        44.0605        13.2005        715.334        716.811           0.33 0 0
<weights> 50.1091 50.109 44.024 54.374 50.109 44.024 54.374 50.109 44.024 54.374</weights>
<rwgt>
<wgt id="1001"> 50.109</weight>
</rwgt>
#aMCatNLO 1  6  5  0  0 0.00000000E+00 0.00000000E+00 9  0  0 0.10000000E+01 0.87857055E+00 0.10851095E+01 0.00000000E+00 0.00000000E+00
</event>
<event>
    6     66        50.1091        26.4195     0.00755639        0.12114
        2 -1    0    0  502    0              0              0        280.154        280.154           0.33 0 0
        5 -1    0    0  501    0              0              0       -36.5354        36.8493            4.8 0 0
        6  2    1    2  501    0        24.4428        10.0198         223.23        283.632        172.967 0 0
       24  1    3    3    0    0        7.76775        72.8693         153.83        188.409         80.398 0 0
        5  1    3    3  501    0        16.6751       -62.8495        69.3997        95.2233            4.8 0 0
        1  1    1    2  502    0       -24.4428       -10.0198        20.3886        33.3714           0.33 0 0
<weights> 50.1091 50.109 41.673 57.071 50.109 41.673 57.071 50.109 41.673 57.071</weights>
<rwgt>
<wgt id="1001"> 50.109</weight>
</rwgt>
#aMCatNLO 1  6  2  0  0 0.00000000E+00 0.00000000E+00 9  0  0 0.10000000E+01 0.83164067E+00 0.11389422E+01 0.00000000E+00 0.00000000E+00
</event>
<event>
    6     66        50.1091        12.9661     0.00755639        0.12114
        5 -1    0    0  502    0              0              0         610.45        610.469            4.8 0 0
       -1 -1    0    0    0  501              0              0       -55.5346        55.5355           0.33 0 0
        6  2    1    2  502    0       0.355257       -12.9612        597.044        621.925         173.67 0 0
       24  1    3    3    0    0        35.8044       -52.1538        239.059        260.028         80.398 0 0
        5  1    3    3  502    0       -35.4492        39.1926        357.985        361.897            4.8 0 0
       -2  1    1    2    0  501      -0.355257        12.9612       -42.1281        44.0795           0.33 0 0
<weights> 50.1091 50.109 43.349 54.998 50.109 43.349 54.998 50.109 43.349 54.998</weights>
<rwgt>
<wgt id="1001"> 50.109</weight>
</rwgt>
#aMCatNLO 1  6  5  0  0 0.00000000E+00 0.00000000E+00 9  0  0 0.10000000E+01 0.86508458E+00 0.10975587E+01 0.00000000E+00 0.00000000E+00
</event>
<event>
    6     66        50.1091        82.3507     0.00755639        0.12114
       -3 -1    0    0    0  501              0              0        46.5902        46.5929            0.5 0 0
        5 -1    0    0  502    0             -0             -0       -561.962        561.982            4.8 0 0
        6  2    1    2  502    0       -79.9068        19.8945        -484.02         520.45        172.662 0 0
       24  1    3    3    0    0        4.67832         50.051       -315.453        329.395         80.398 0 0
        5  1    3    3  502    0       -84.5851       -30.1565       -168.567        191.055            4.8 0 0
       -4  1    1    2    0  501        79.9068       -19.8945       -31.3522        88.1255            1.5 0 0
<weights> 50.1091 50.109 42.224 56.169 50.109 42.224 56.169 50.109 42.224 56.169</weights>
<rwgt>
<wgt id="1001"> 50.109</weight>
</rwgt>
#aMCatNLO 1  6  5  0  0 0.00000000E+00 0.00000000E+00 9  0  0 0.99999998E+00 0.84264439E+00 0.11209240E+01 0.00000000E+00 0.00000000E+00
</event>
<event>
    5     66        50.1091        46.9958     0.00755639        0.12114
        2 -1    0    0  502    0              0              0        1172.84        1172.84           0.33 0 0
        5 -1    0    0  501    0              0              0       -17.7826         18.419            4.8 0 0
       24  1    1    2    0    0       -18.8461        -52.515        245.352        264.148         80.398 0 0
        5  1    1    2  501    0       -5.75229        92.5405        266.835        282.526            4.8 0 0
        1  1    1    2  502    0        24.5984       -40.0255        642.873        644.587           0.33 0 0
<weights> 50.1091 50.109 43.946 54.454 50.109 43.946 54.454 50.109 43.946 54.454</weights>
<rwgt>
<wgt id="1001"> 50.109</weight>
</rwgt>
#aMCatNLO 1  6  2  0  0 0.00000000E+00 0.00000000E+00 9  0  0 0.99999998E+00 0.87700916E+00 0.10867172E+01 0.00000000E+00 0.00000000E+00
</event>
<event>
    5     66        50.1091        36.1262     0.00755639        0.12114
        5 -1    0    0  501    0              0              0        36.7689        37.0809            4.8 0 0
        2 -1    0    0  502    0             -0             -0       -355.339        355.339           0.33 0 0
       24  1    1    2    0    0       -70.9147        9.49094       -210.947        236.815         80.398 0 0
        5  1    1    2  501    0        32.0758       -16.4469        4.59281        36.6537            4.8 0 0
        1  1    1    2  502    0        38.8389          6.956       -112.216        118.951           0.33 0 0
<weights> 50.1091 50.109 42.021 56.658 50.109 42.021 56.658 50.109 42.021 56.658</weights>
<rwgt>
<wgt id="1001"> 50.109</weight>
</rwgt>
#aMCatNLO 1  6  5  0  0 0.00000000E+00 0.00000000E+00 9  0  0 0.10000000E+01 0.83858997E+00 0.11306999E+01 0.00000000E+00 0.00000000E+00
</event>
<event>
    6     66        50.1091        63.6206     0.00755639        0.12114
        2 -1    0    0  502    0              0              0        1055.88        1055.88           0.33 0 0
        5 -1    0    0  501    0              0              0       -734.344         734.36            4.8 0 0
        6  2    1    2  501    0        86.9712         39.432       -718.814        745.516        173.153 0 0
       24  1    3    3    0    0        23.5555        44.3469       -184.674        207.581         80.398 0 0
        5  1    3    3  501    0        63.4158       -4.91492        -534.14        537.935            4.8 0 0
        1  1    1    2  502    0       -86.9712        -39.432        1040.35        1044.72           0.33 0 0
<weights> 50.1091 50.109 49.191 49.314 50.109 49.191 49.314 50.109 49.191 49.314</weights>
<rwgt>
<wgt id="1001"> 50.109</weight>
</rwgt>
#aMCatNLO 1  6  2  0  0 0.00000000E+00 0.00000000E+00 9  0  0 0.99999995E+00 0.98167890E+00 0.99999995E+00 0.00000000E+00 0.00000000E+00
</event>
<event>
    5     66        50.1091        19.8503     0.00755639        0.12114
        2 -1    0    0  502    0              0              0        2544.59        2544.59           0.33 0 0
        5 -1    0    0  501    0              0              0        -2.3995        5.36634            4.8 0 0
       24  1    1    2    0    0         16.816        -33.038        591.547        598.135         80.398 0 0
        5  1    1    2  501    0       -36.5189        30.6795         1387.7        1388.52            4.8 0 0
        1  1    1    2  502    0        19.7029         2.3585        562.948        563.297           0.33 0 0
<weights> 50.1091 50.109 46.424 51.848 50.109 46.424 51.848 50.109 46.424 51.848</weights>
<rwgt>
<wgt id="1001"> 50.109</weight>
</rwgt>
#aMCatNLO 1  6  2  0  0 0.00000000E+00 0.00000000E+00 9  0  0 0.99999997E+00 0.92646269E+00 0.10346996E+01 0.00000000E+00 0.00000000E+00
</event>
<event>
    5     66        50.1091         24.635     0.00755639        0.12114
        2 -1    0    0  502    0              0              0        1078.01        1078.01           0.33 0 0
        5 -1    0    0  501    0              0              0       -19.1797        19.7712            4.8 0 0
       24  1    1    2    0    0        75.0987       -13.7266        545.611        556.762         80.398 0 0
        5  1    1    2  501    0       -5.28082       -24.0471        3.70154        25.3553            4.8 0 0
        1  1    1    2  502    0       -69.8179        37.7736        509.519        515.666           0.33 0 0
<weights> 50.1091 50.109 43.748 54.674 50.109 43.748 54.674 50.109 43.748 54.674</weights>
<rwgt>
<wgt id="1001"> 50.109</weight>
</rwgt>
#aMCatNLO 1  6  2  0  0 0.00000000E+00 0.00000000E+00 9  0  0 0.99999998E+00 0.87305560E+00 0.10910921E+01 0.00000000E+00 0.00000000E+00
</event>
<event>
    6     66        50.1091        36.8148     0.00755639        0.12114
        5 -1    0    0  502    0              0              0        564.202        564.222            4.8 0 0
       -1 -1    0    0    0  501              0              0       -24.7187        24.7209           0.33 0 0
        6  2    1    2  502    0       -5.78265         36.357        515.117        544.795        173.495 0 0
       24  1    3    3    0    0         27.449        82.0819         302.72        324.952         80.398 0 0
        5  1    3    3  502    0       -33.2316       -45.7249        212.397        219.842            4.8 0 0
       -2  1    1    2    0  501        5.78265        -36.357        24.3664        44.1486           0.33 0 0
<weights> 50.1091 50.109 42.041 56.48 50.109 42.041 56.48 50.109 42.041 56.48</weights>
<rwgt>
<wgt id="1001"> 50.109</weight>
</rwgt>
#aMCatNLO 1  6  2  0  0 0.00000000E+00 0.00000000E+00 9  0  0 0.99999997E+00 0.83898317E+00 0.11271480E+01 0.00000000E+00 0.00000000E+00
</event>
<event>
    5     66        50.1091        52.2823     0.00755639        0.12114
        2 -1    0    0  502    0              0              0        858.574        858.574           0.33 0 0
        5 -1    0    0  501    0              0              0       -15.7021        16.4193            4.8 0 0
       24  1    1    2    0    0       -29.8148       -31.0888        433.451        442.944         80.398 0 0
        5  1    1    2  501    0        16.9947        81.7712        214.396        230.139            4.8 0 0
        1  1    1    2  502    0        12.8201       -50.6824        195.025         201.91           0.33 0 0
<weights> 50.1091 50.109 42.883 55.646 50.109 42.883 55.646 50.109 42.883 55.646</weights>
<rwgt>
<wgt id="1001"> 50.109</weight>
</rwgt>
#aMCatNLO 1  6  5  0  0 0.00000000E+00 0.00000000E+00 9  0  0 0.99999998E+00 0.85579003E+00 0.11104897E+01 0.00000000E+00 0.00000000E+00
</event>
<event>
    6     66        50.1091        43.7797     0.00755639        0.12114
        5 -1    0    0  501    0              0              0        27.4359        27.8526            4.8 0 0
        2 -1    0    0  502    0              0              0       -534.022        534.022           0.33 0 0
        6  2    1    2  501    0       -10.9017       -42.3999       -286.865        337.835        172.985 0 0
       24  1    3    3    0    0        37.8964        21.7744       -107.831        141.427         80.398 0 0
        5  1    3    3  501    0       -48.7982       -64.1743       -179.035        196.408            4.8 0 0
        1  1    1    2  502    0        10.9017        42.3999       -219.721         224.04           0.33 0 0
<weights> 50.1091 50.109 42.391 56.22 50.109 42.391 56.22 50.109 42.391 56.22</weights>
<rwgt>
<wgt id="1001"> 50.109</weight>
</rwgt>
#aMCatNLO 1  6  2  0  0 0.00000000E+00 0.00000000E+00 9  0  0 0.10000000E+01 0.84596746E+00 0.11219509E+01 0.00000000E+00 0.00000000E+00
</event>
<event>
    5     66        50.1091         45.109     0.00755639        0.12114
        5 -1    0    0  501    0              0              0        13.4258         14.258            4.8 0 0
        2 -1    0    0  502    0              0              0        -916.47         916.47           0.33 0 0
       24  1    1    2    0    0        17.9451       -3.00532       -550.687        556.822         80.398 0 0
        5  1    1    2  501    0       -62.9519     0.00368372       -105.396        122.859            4.8 0 0
        1  1    1    2  502    0        45.0068        3.00163       -246.961        251.047           0.33 0 0
<weights> 50.1091 50.109 42.906 55.618 50.109 42.906 55.618 50.109 42.906 55.618</weights>
<rwgt>
<wgt id="1001"> 50.109</weight>
</rwgt>
#aMCatNLO 1  6  2  0  0 0.00000000E+00 0.00000000E+00 9  0  0 0.10000000E+01 0.85624953E+00 0.11099412E+01 0.00000000E+00 0.00000000E+00
</event>
<event>
    6     66        50.1091        72.8757     0.00755639        0.12114
        2 -1    0    0  502    0              0              0        630.003        630.003           0.33 0 0
        5 -1    0    0  501    0              0              0       -27.4442        27.8608            4.8 0 0
        6  2    1    2  501    0       -33.4648        64.7369        387.704        430.986        173.563 0 0
       24  1    3    3    0    0        45.7484        27.5233        158.204        185.318         80.398 0 0
        5  1    3    3  501    0       -79.2131        37.2136          229.5        245.668            4.8 0 0
        1  1    1    2  502    0        33.4648       -64.7369        214.854        226.877           0.33 0 0
<weights> 50.1091 50.109 42.724 55.833 50.109 42.724 55.833 50.109 42.724 55.833</weights>
<rwgt>
<wgt id="1001"> 50.109</weight>
</rwgt>
#aMCatNLO 1  6  5  0  0 0.00000000E+00 0.00000000E+00 9  0  0 0.10000000E+01 0.85261377E+00 0.11142273E+01 0.00000000E+00 0.00000000E+00
</event>
<event>
    6     66        50.1091        32.6871     0.00755639        0.12114
        5 -1    0    0  501    0              0              0        242.145        242.193            4.8 0 0
        2 -1    0    0  502    0              0              0       -65.3635        65.3643           0.33 0 0
        6  2    1    2  501    0        -17.148       -27.8274        200.509        267.165        173.509 0 0
       24  1    3    3    0    0         45.714       -47.2159         85.182        134.309         80.398 0 0
        5  1    3    3  501    0       -62.8621        19.3885        115.327        132.856            4.8 0 0
        1  1    1    2  502    0         17.148        27.8274       -23.7268        40.3917           0.33 0 0
<weights> 50.1091 50.109 42.142 56.46 50.109 42.142 56.46 50.109 42.142 56.46</weights>
<rwgt>
<wgt id="1001"> 50.109</weight>
</rwgt>
#aMCatNLO 1  6  2  0  0 0.00000000E+00 0.00000000E+00 9  0  0 0.10000000E+01 0.84099847E+00 0.11267470E+01 0.00000000E+00 0.00000000E+00
</event>
<event>
    6     66        50.1091        65.3165     0.00755639        0.12114
        2 -1    0    0  502    0              0              0        1032.41        1032.41           0.33 0 0
        5 -1    0    0  501    0              0              0       -41.4757        41.7525            4.8 0 0
        6  2    1    2  501    0        12.4585       -116.967        257.894        331.744        172.361 0 0
       24  1    3    3    0    0        9.78146         -51.69        39.7524        103.979         80.398 0 0
        5  1    3    3  501    0          2.677       -65.2774        218.142        227.765            4.8 0 0
        1  1    1    2  502    0       -12.4585        116.967        733.042         742.42           0.33 0 0
<weights> 50.1091 50.109 44.47 53.896 50.109 44.47 53.896 50.109 44.47 53.896</weights>
<rwgt>
<wgt id="1001"> 50.109</weight>
</rwgt>
#aMCatNLO 1  6  2  0  0 0.00000000E+00 0.00000000E+00 9  0  0 0.10000000E+01 0.88747203E+00 0.10755685E+01 0.00000000E+00 0.00000000E+00
</event>
<event>
    6     66        50.1091        8.56072     0.00755639        0.12114
        4 -1    0    0  502    0              0              0        35.6053        35.6369            1.5 0 0
        5 -1    0    0  501    0             -0             -0       -346.906        346.939            4.8 0 0
        6  2    1    2  501    0       -1.39528        8.44565       -323.764        367.449        173.558 0 0
       24  1    3    3    0    0        26.1416         20.862       -69.6635        111.514         80.398 0 0
        5  1    3    3  501    0       -27.5368       -12.4164         -254.1        255.934            4.8 0 0
        3  1    1    2  502    0        1.39528       -8.44565        12.4628        15.1277            0.5 0 0
<weights> 50.1091 50.109 39.926 58.764 50.109 39.926 58.764 50.109 39.926 58.764</weights>
<rwgt>
<wgt id="1001"> 50.109</weight>
</rwgt>
#aMCatNLO 1  6  5  0  0 0.00000000E+00 0.00000000E+00 9  0  0 0.10000000E+01 0.79677427E+00 0.11727149E+01 0.00000000E+00 0.00000000E+00
</event>
<event>
    5     66        50.1091        10.4365     0.00755639        0.12114
        5 -1    0    0  501    0              0              0        61.3628        61.5502            4.8 0 0
        2 -1    0    0  502    0              0              0       -252.136        252.136           0.33 0 0
       24  1    1    2    0    0        28.4888       -9.36203        -128.64        154.633         80.398 0 0
        5  1    1    2  501    0        6.02825        8.61008        45.0179        46.4771            4.8 0 0
        1  1    1    2  502    0        -34.517       0.751955       -107.151        112.576           0.33 0 0
<weights> 50.1091 50.109 42.118 56.544 50.109 42.118 56.544 50.109 42.118 56.544</weights>
<rwgt>
<wgt id="1001"> 50.109</weight>
</rwgt>
#aMCatNLO 1  6  2  0  0 0.00000000E+00 0.00000000E+00 9  0  0 0.10000000E+01 0.84051249E+00 0.11284199E+01 0.00000000E+00 0.00000000E+00
</event>
<event>
    6     66        50.1091        16.7295     0.00755639        0.12114
        5 -1    0    0  501    0              0              0        25.3375        25.7882            4.8 0 0
        2 -1    0    0  502    0              0              0       -1146.41        1146.41           0.33 0 0
        6  2    1    2  501    0        14.7929       -7.81306       -275.893        326.853         174.46 0 0
       24  1    3    3    0    0       -53.3227        -32.287       -177.892        204.927         80.398 0 0
        5  1    3    3  501    0        68.1155         24.474       -98.0011        121.926            4.8 0 0
        1  1    1    2  502    0       -14.7929        7.81306       -845.175         845.34           0.33 0 0
<weights> 50.1091 50.109 44.246 54.129 50.109 44.246 54.129 50.109 44.246 54.129</weights>
<rwgt>
<wgt id="1001"> 50.109</weight>
</rwgt>
#aMCatNLO 1  6  2  0  0 0.00000000E+00 0.00000000E+00 9  0  0 0.10000000E+01 0.88299425E+00 0.10802360E+01 0.00000000E+00 0.00000000E+00
</event>
<event>
    6     66        50.1091        69.1836     0.00755639        0.12114
        5 -1    0    0  501    0              0              0         300.94        300.978            4.8 0 0
        2 -1    0    0  502    0             -0             -0       -578.546        578.546           0.33 0 0
        6  2    1    2  501    0       -59.1762        87.4619        261.048        330.616        173.232 0 0
       24  1    3    3    0    0         8.7006        100.509        134.648        186.472         80.398 0 0
        5  1    3    3  501    0       -67.8768       -13.0476          126.4        144.144            4.8 0 0
        1  1    1    2  502    0        59.1762       -87.4619       -538.654        548.908           0.33 0 0
<weights> 50.1091 50.109 45.608 52.724 50.109 45.608 52.724 50.109 45.608 52.724</weights>
<rwgt>
<wgt id="1001"> 50.109</weight>
</rwgt>
#aMCatNLO 1  6  5  0  0 0.00000000E+00 0.00000000E+00 9  0  0 0.99999999E+00 0.91018525E+00 0.10521786E+01 0.00000000E+00 0.00000000E+00
</event>
<event>
    6     66        50.1091        14.4002     0.00755639        0.12114
        5 -1    0    0  502    0              0              0        128.457        128.547            4.8 0 0
       -1 -1    0    0    0  501             -0             -0       -319.477        319.478           0.33 0 0
        6  2    1    2  502    0       -23.3387         13.085        67.7298        187.894        173.208 0 0
       24  1    3    3    0    0       -32.5003        2.00947       -27.8636        91.1072         80.398 0 0
        5  1    3    3  502    0        9.16164        11.0755        95.5934        96.7871            4.8 0 0
       -2  1    1    2    0  501        23.3387        -13.085        -258.75         260.13           0.33 0 0
<weights> 50.1091 50.109 44.127 54.232 50.109 44.127 54.232 50.109 44.127 54.232</weights>
<rwgt>
<wgt id="1001"> 50.109</weight>
</rwgt>
#aMCatNLO 1  6  5  0  0 0.00000000E+00 0.00000000E+00 9  0  0 0.10000000E+01 0.88062017E+00 0.10822723E+01 0.00000000E+00 0.00000000E+00
</event>
<event>
    6     66        50.1091        80.4993     0.00755639        0.12114
        2 -1    0    0  502    0              0              0        244.283        244.283           0.33 0 0
        5 -1    0    0  501    0              0              0       -76.3445        76.4953            4.8 0 0
        6  2    1    2  501    0        67.6444       -43.6377        131.835        232.554        173.841 0 0
       24  1    3    3    0    0          3.658        6.63633        3.88999         80.848         80.398 0 0
        5  1    3    3  501    0        63.9864        -50.274        127.945        151.706            4.8 0 0
        1  1    1    2  502    0       -67.6444        43.6377        36.1037        88.2247           0.33 0 0
<weights> 50.1091 50.109 42.33 56.295 50.109 42.33 56.295 50.109 42.33 56.295</weights>
<rwgt>
<wgt id="1001"> 50.109</weight>
</rwgt>
#aMCatNLO 1  6  2  0  0 0.00000000E+00 0.00000000E+00 9  0  0 0.99999998E+00 0.84475886E+00 0.11234421E+01 0.00000000E+00 0.00000000E+00
</event>
<event>
    6     66        50.1091        10.6995     0.00755639        0.12114
        2 -1    0    0  502    0              0              0        207.929        207.929           0.33 0 0
        5 -1    0    0  501    0              0              0        -66.995        67.1668            4.8 0 0
        6  2    1    2  501    0        9.77929        4.34059        45.8695        179.431        173.138 0 0
       24  1    3    3    0    0       -6.21035         16.364       -39.7461         91.378         80.398 0 0
        5  1    3    3  501    0        15.9896       -12.0235        85.6156        88.0528            4.8 0 0
        1  1    1    2  502    0       -9.77929       -4.34059        95.0641        95.6649           0.33 0 0
<weights> 50.1091 50.109 41.966 56.719 50.109 41.966 56.719 50.109 41.966 56.719</weights>
<rwgt>
<wgt id="1001"> 50.109</weight>
</rwgt>
#aMCatNLO 1  6  2  0  0 0.00000000E+00 0.00000000E+00 9  0  0 0.99999998E+00 0.83748720E+00 0.11319092E+01 0.00000000E+00 0.00000000E+00
</event>
<event>
    6     66        50.1091         19.713     0.00755639        0.12114
        2 -1    0    0  502    0              0              0        156.167        156.168           0.33 0 0
        5 -1    0    0  501    0              0              0       -239.246        239.294            4.8 0 0
        6  2    1    2  501    0       -19.7129      0.0114583       -206.289        270.684        174.144 0 0
       24  1    3    3    0    0       -30.9419        63.9831       -104.094        149.501         80.398 0 0
        5  1    3    3  501    0         11.229       -63.9716       -102.195        121.183            4.8 0 0
        1  1    1    2  502    0        19.7129     -0.0114583         123.21        124.778           0.33 0 0
<weights> 50.1091 50.109 43.215 55.268 50.109 43.215 55.268 50.109 43.215 55.268</weights>
<rwgt>
<wgt id="1001"> 50.109</weight>
</rwgt>
#aMCatNLO 1  6  2  0  0 0.00000000E+00 0.00000000E+00 9  0  0 0.99999999E+00 0.86241338E+00 0.11029560E+01 0.00000000E+00 0.00000000E+00
</event>
<event>
    5     66        50.1091        35.4474     0.00755639        0.12114
        5 -1    0    0  501    0              0              0        51.6126        51.8353            4.8 0 0
        2 -1    0    0  502    0             -0             -0       -515.661        515.661           0.33 0 0
       24  1    1    2    0    0        8.24795        3.75345        13.9272         82.097         80.398 0 0
        5  1    1    2  501    0        30.0623       -18.7581       -124.386        129.423            4.8 0 0
        1  1    1    2  502    0       -38.3103        15.0046        -353.59        355.976           0.33 0 0
<weights> 50.1091 50.109 43.033 55.488 50.109 43.033 55.488 50.109 43.033 55.488</weights>
<rwgt>
<wgt id="1001"> 50.109</weight>
</rwgt>
#aMCatNLO 1  6  5  0  0 0.00000000E+00 0.00000000E+00 9  0  0 0.99999999E+00 0.85878429E+00 0.11073369E+01 0.00000000E+00 0.00000000E+00
</event>
<event>
    5     66        50.1091         34.715     0.00755639        0.12114
        2 -1    0    0  502    0              0              0        1039.48        1039.48           0.33 0 0
        5 -1    0    0  501    0              0              0        -27.851        28.2616            4.8 0 0
       24  1    1    2    0    0       -61.1535       -32.2793        317.555        334.793         80.398 0 0
        5  1    1    2  501    0       -10.8312        32.9523      -0.133934        35.0175            4.8 0 0
        1  1    1    2  502    0        71.9847      -0.672979        694.206        697.928           0.33 0 0
<weights> 50.1091 50.109 44.034 54.361 50.109 44.034 54.361 50.109 44.034 54.361</weights>
<rwgt>
<wgt id="1001"> 50.109</weight>
</rwgt>
#aMCatNLO 1  6  5  0  0 0.00000000E+00 0.00000000E+00 9  0  0 0.99999998E+00 0.87876912E+00 0.10848566E+01 0.00000000E+00 0.00000000E+00
</event>
<event>
    5     66        50.1091        52.7856     0.00755639        0.12114
       -1 -1    0    0    0  501              0              0        150.668        150.669           0.33 0 0
        5 -1    0    0  502    0              0              0       -153.665         153.74            4.8 0 0
       24  1    1    2    0    0        22.3223        46.9882       -62.8816         114.56         80.398 0 0
        5  1    1    2  502    0       -73.4686       -33.9415       -29.3075         86.207            4.8 0 0
       -2  1    1    2    0  501        51.1464       -13.0467        89.1922        103.641           0.33 0 0
<weights> 50.1091 50.109 42.757 55.719 50.109 42.757 55.719 50.109 42.757 55.719</weights>
<rwgt>
<wgt id="1001"> 50.109</weight>
</rwgt>
#aMCatNLO 1  6  2  0  0 0.00000000E+00 0.00000000E+00 9  0  0 0.99999995E+00 0.85327070E+00 0.11119639E+01 0.00000000E+00 0.00000000E+00
</event>
<event>
    6     66        50.1091        28.7752     0.00755639        0.12114
        5 -1    0    0  501    0              0              0        119.107        119.204            4.8 0 0
        2 -1    0    0  502    0             -0             -0       -387.698        387.698           0.33 0 0
        6  2    1    2  501    0        7.02272       -96.3022        23.4156        199.345         172.82 0 0
       24  1    3    3    0    0        22.7653       -72.1775       -49.3466        120.941         80.398 0 0
        5  1    3    3  501    0       -15.7425       -24.1246        72.7622        78.4041            4.8 0 0
        1  1    1    2  502    0       -7.02272        96.3022       -292.006        307.557           0.33 0 0
<weights> 50.1091 50.109 43.558 54.907 50.109 43.558 54.907 50.109 43.558 54.907</weights>
<rwgt>
<wgt id="1001"> 50.109</weight>
</rwgt>
#aMCatNLO 1  6  5  0  0 0.00000000E+00 0.00000000E+00 9  0  0 0.10000000E+01 0.86925929E+00 0.10957487E+01 0.00000000E+00 0.00000000E+00
</event>
<event>
    6     66        50.1091        34.6337     0.00755639        0.12114
        2 -1    0    0  502    0              0              0        91.0234         91.024           0.33 0 0
        5 -1    0    0  501    0              0              0       -178.462        178.527            4.8 0 0
        6  2    1    2  501    0        18.0907        29.5328       -126.778        217.138        172.849 0 0
       24  1    3    3    0    0        45.1922       -40.6908       -69.8617        122.648         80.398 0 0
        5  1    3    3  501    0       -27.1015        70.2237       -56.9161        94.4899            4.8 0 0
        1  1    1    2  502    0       -18.0907       -29.5328        39.3388        52.4129           0.33 0 0
<weights> 50.1091 50.109 42.148 56.471 50.109 42.148 56.471 50.109 42.148 56.471</weights>
<rwgt>
<wgt id="1001"> 50.109</weight>
</rwgt>
#aMCatNLO 1  6  2  0  0 0.00000000E+00 0.00000000E+00 9  0  0 0.10000000E+01 0.84113267E+00 0.11269671E+01 0.00000000E+00 0.00000000E+00
</event>
<event>
    6     66        50.1091        88.6047     0.00755639        0.12114
        2 -1    0    0  502    0              0              0        2525.51        2525.51           0.33 0 0
        5 -1    0    0  501    0              0              0       -30.0792        30.4598            4.8 0 0
        6  2    1    2  501    0        59.4249       -87.2141        327.189        385.161        173.663 0 0
       24  1    3    3    0    0        45.0046       0.168614        253.913        270.113         80.398 0 0
        5  1    3    3  501    0        14.4204       -87.3828        73.2768        115.049            4.8 0 0
        1  1    1    2  502    0       -59.4249        87.2141        2168.24        2170.81           0.33 0 0
<weights> 50.1091 50.109 48.621 49.778 50.109 48.621 49.778 50.109 48.621 49.778</weights>
<rwgt>
<wgt id="1001"> 50.109</weight>
</rwgt>
#aMCatNLO 1  6  5  0  0 0.00000000E+00 0.00000000E+00 9  0  0 0.99999995E+00 0.97029768E+00 0.99999995E+00 0.00000000E+00 0.00000000E+00
</event>
<event>
    5     66        50.1091        154.936     0.00755639        0.12114
        2 -1    0    0  502    0              0              0        1258.31        1258.31           0.33 0 0
        5 -1    0    0  501    0              0              0       -207.326        207.381            4.8 0 0
       24  1    1    2    0    0       -15.1912        59.9778       -35.3019        107.416         80.398 0 0
        5  1    1    2  501    0        80.5701        132.362        -79.982        174.446            4.8 0 0
        1  1    1    2  502    0        -65.379        -192.34        1166.27        1183.83           0.33 0 0
<weights> 50.1091 50.109 47.281 51.07 50.109 47.281 51.07 50.109 47.281 51.07</weights>
<rwgt>
<wgt id="1001"> 50.109</weight>
</rwgt>
#aMCatNLO 1  6  2  0  0 0.00000000E+00 0.00000000E+00 9  0  0 0.99999996E+00 0.94356955E+00 0.10191700E+01 0.00000000E+00 0.00000000E+00
</event>
<event>
    6     66        50.1091        8.19293     0.00755639        0.12114
        5 -1    0    0  501    0              0              0        8.81781        10.0396            4.8 0 0
        2 -1    0    0  502    0              0              0       -994.383        994.383           0.33 0 0
        6  2    1    2  501    0        7.99657        1.76043       -803.728        822.401        174.062 0 0
       24  1    3    3    0    0       -60.6342        20.8956        -474.27        485.293         80.398 0 0
        5  1    3    3  501    0        68.6308       -19.1352       -329.458        337.108            4.8 0 0
        1  1    1    2  502    0       -7.99657       -1.76043       -181.837        182.021           0.33 0 0
<weights> 50.1091 50.109 42.76 55.784 50.109 42.76 55.784 50.109 42.76 55.784</weights>
<rwgt>
<wgt id="1001"> 50.109</weight>
</rwgt>
#aMCatNLO 1  6  2  0  0 0.00000000E+00 0.00000000E+00 9  0  0 0.99999997E+00 0.85334623E+00 0.11132455E+01 0.00000000E+00 0.00000000E+00
</event>
<event>
    6     66        50.1091        64.2942     0.00755639        0.12114
        5 -1    0    0  501    0              0              0         63.868        64.0481            4.8 0 0
        2 -1    0    0  502    0             -0             -0       -1111.14        1111.14           0.33 0 0
        6  2    1    2  501    0       -73.2518        13.8313       -81.4302        206.474         174.48 0 0
       24  1    3    3    0    0       -56.0058        75.6771       -40.8581        130.372         80.398 0 0
        5  1    3    3  501    0        -17.246       -61.8457       -40.5721        76.1016            4.8 0 0
        1  1    1    2  502    0        73.2518       -13.8313       -965.839        968.711           0.33 0 0
<weights> 50.1091 50.109 45.236 53.095 50.109 45.236 53.095 50.109 45.236 53.095</weights>
<rwgt>
<wgt id="1001"> 50.109</weight>
</rwgt>
#aMCatNLO 1  6  5  0  0 0.00000000E+00 0.00000000E+00 9  0  0 0.10000000E+01 0.90275257E+00 0.10595810E+01 0.00000000E+00 0.00000000E+00
</event>
<event>
    6     66        50.1091           33.7     0.00755639        0.12114
        5 -1    0    0  501    0              0              0        38.8851        39.1802            4.8 0 0
        2 -1    0    0  502    0             -0             -0       -577.374        577.375           0.33 0 0
        6  2    1    2  501    0       -19.5276        27.4655       -163.973        240.525        172.712 0 0
       24  1    3    3    0    0        8.58735       -11.3563         -13.79        82.8053         80.398 0 0
        5  1    3    3  501    0       -28.1149        38.8218       -150.183         157.72            4.8 0 0
        1  1    1    2  502    0        19.5276       -27.4655       -374.516         376.03           0.33 0 0
<weights> 50.1091 50.109 42.928 55.603 50.109 42.928 55.603 50.109 42.928 55.603</weights>
<rwgt>
<wgt id="1001"> 50.109</weight>
</rwgt>
#aMCatNLO 1  6  5  0  0 0.00000000E+00 0.00000000E+00 9  0  0 0.10000000E+01 0.85668639E+00 0.11096452E+01 0.00000000E+00 0.00000000E+00
</event>
<event>
    6     66        50.1091        88.8764     0.00755639        0.12114
        5 -1    0    0  501    0              0              0         21.259        21.7941            4.8 0 0
        2 -1    0    0  502    0              0              0       -1262.14        1262.14           0.33 0 0
        6  2    1    2  501    0       -86.6957        19.5654       -481.443        519.313        173.205 0 0
       24  1    3    3    0    0        18.1119       -15.3887       -194.606        211.897         80.398 0 0
        5  1    3    3  501    0       -104.808        34.9541       -286.837        307.416            4.8 0 0
        1  1    1    2  502    0        86.6957       -19.5654       -759.435        764.618           0.33 0 0
<weights> 50.1091 50.109 44.39 53.974 50.109 44.39 53.974 50.109 44.39 53.974</weights>
<rwgt>
<wgt id="1001"> 50.109</weight>
</rwgt>
#aMCatNLO 1  6  2  0  0 0.00000000E+00 0.00000000E+00 9  0  0 0.10000001E+01 0.88585157E+00 0.10771163E+01 0.00000000E+00 0.00000000E+00
</event>
<event>
    5     66        50.1091        12.5259     0.00755639        0.12114
        4 -1    0    0  502    0              0              0         111.65         111.66            1.5 0 0
        5 -1    0    0  501    0             -0             -0       -375.878        375.909            4.8 0 0
       24  1    1    2    0    0        1.91705       -73.8055       -204.807        232.079         80.398 0 0
        5  1    1    2  501    0       0.492766        61.5137       -150.967        163.089            4.8 0 0
        3  1    1    2  502    0       -2.40982        12.2918        91.5462        92.4005            0.5 0 0
<weights> 50.1091 50.109 41.474 56.854 50.109 41.474 56.854 50.109 41.474 56.854</weights>
<rwgt>
<wgt id="1001"> 50.109</weight>
</rwgt>
#aMCatNLO 1  6  5  0  0 0.00000000E+00 0.00000000E+00 9  0  0 0.10000000E+01 0.82768139E+00 0.11345974E+01 0.00000000E+00 0.00000000E+00
</event>
<event>
    6     66        50.1091        21.7641     0.00755639        0.12114
       -1 -1    0    0    0  501              0              0        524.022        524.022           0.33 0 0
        5 -1    0    0  502    0              0              0       -28.9157        29.3114            4.8 0 0
        6  2    1    2  502    0         3.9023         21.411        239.129        296.433        173.827 0 0
       24  1    3    3    0    0        -53.785        49.5886        127.293        167.389         80.398 0 0
        5  1    3    3  502    0        57.6873       -28.1776        111.836        129.043            4.8 0 0
       -2  1    1    2    0  501        -3.9023        -21.411        255.977        256.901           0.33 0 0
<weights> 50.1091 50.109 43.692 54.704 50.109 43.692 54.704 50.109 43.692 54.704</weights>
<rwgt>
<wgt id="1001"> 50.109</weight>
</rwgt>
#aMCatNLO 1  6  5  0  0 0.00000000E+00 0.00000000E+00 9  0  0 0.10000000E+01 0.87194415E+00 0.10916887E+01 0.00000000E+00 0.00000000E+00
</event>
<event>
    5     66        50.1091        8.75845     0.00755639        0.12114
       -1 -1    0    0    0  501              0              0        404.072        404.072           0.33 0 0
        5 -1    0    0  502    0              0              0        -24.602        25.0659            4.8 0 0
       24  1    1    2    0    0       -15.5575        23.3725        58.1911        103.142         80.398 0 0
        5  1    1    2  502    0        18.2237       -31.6711        148.785        153.282            4.8 0 0
       -2  1    1    2    0  501       -2.66614        8.29869        172.493        172.714           0.33 0 0
<weights> 50.1091 50.109 42.77 55.733 50.109 42.77 55.733 50.109 42.77 55.733</weights>
<rwgt>
<wgt id="1001"> 50.109</weight>
</rwgt>
#aMCatNLO 1  6  2  0  0 0.00000000E+00 0.00000000E+00 9  0  0 0.10000001E+01 0.85353954E+00 0.11122399E+01 0.00000000E+00 0.00000000E+00
</event>
</LesHouchesEvents>
